# Force and moment coefficients
# dragDir               : (1.0000000000000000e+00 0.0000000000000000e+00 0.0000000000000000e+00)
# sideDir               : (0.0000000000000000e+00 1.0000000000000000e+00 0.0000000000000000e+00)
# liftDir               : (0.0000000000000000e+00 0.0000000000000000e+00 1.0000000000000000e+00)
# rollAxis              : (1.0000000000000000e+00 0.0000000000000000e+00 0.0000000000000000e+00)
# pitchAxis             : (0.0000000000000000e+00 1.0000000000000000e+00 0.0000000000000000e+00)
# yawAxis               : (0.0000000000000000e+00 0.0000000000000000e+00 1.0000000000000000e+00)
# magUInf               : 1.6000000000000000e+01
# lRef                  : 1.5300000000000000e+00
# Aref                  : 1.0000000000000000e+00
# CofR                  : (0.0000000000000000e+00 7.6500000000000001e-01 0.0000000000000000e+00)
#
# Time                  	Cd                      	Cd(f)                   	Cd(r)                   	Cl                      	Cl(f)                   	Cl(r)                   	CmPitch                 	CmRoll                  	CmYaw                   	Cs                      	Cs(f)                   	Cs(r)                   
1                       	3.2879244398413898e-01	2.5792832870561860e-01	7.0864115278520323e-02	-1.8114445983763314e-01	3.3238843774518062e-01	-5.1353289758281373e-01	4.2296066766399720e-01	9.3532106713549154e-02	1.6976864754736598e-01	-2.1638447640302414e-21	1.6976864754736598e-01	-1.6976864754736598e-01
2                       	3.8840062836989202e-02	3.2242545867013403e-02	6.5975169699758005e-03	-2.4833477349662979e-02	4.0375322175633055e-02	-6.5208799525296027e-02	5.2792060850464541e-02	1.2822514448518802e-02	2.0054672968118602e-02	-1.9301711584997757e-21	2.0054672968118602e-02	-2.0054672968118602e-02
3                       	9.3256023673089702e-02	4.8948874636857473e-02	4.4307149036232230e-02	-4.4948355499725545e-03	6.9084733346056165e-02	-7.3579568896028708e-02	7.1332151121042436e-02	2.3208628003126251e-03	4.8151803073033260e-02	6.1504953041744562e-21	4.8151803073033260e-02	-4.8151803073033260e-02
4                       	3.1431108972309836e-02	-1.1467056247364774e-03	3.2577814597046319e-02	3.2657288569194733e-02	2.1856868380444668e-03	3.0471601731150263e-02	-1.4142957446552898e-02	-1.6862260110891397e-02	1.6229134698120765e-02	7.6209971634437193e-21	1.6229134698120765e-02	-1.6229134698120765e-02
5                       	4.5473421455124445e-02	-9.2679158831525236e-04	4.6400213043439699e-02	4.5829314611762720e-02	2.5943233335401282e-03	4.3234991278222591e-02	-2.0320333972341231e-02	-2.3663502315877476e-02	2.3479740489900876e-02	3.8882023203296258e-21	2.3479740489900876e-02	-2.3479740489900876e-02
6                       	6.8489888000941523e-02	8.4115300143436794e-03	6.0078357986597851e-02	5.0031801770600529e-02	1.5645948687698995e-02	3.4385853082901534e-02	-9.3699521976012695e-03	-2.5833413986127082e-02	3.5364059817479615e-02	5.6940056541461742e-21	3.5364059817479615e-02	-3.5364059817479615e-02
7                       	6.8864842520046293e-02	1.1144377801839097e-02	5.7720464718207194e-02	4.5102160115217158e-02	1.9049969500261135e-02	2.6052190614956026e-02	-3.5011105573474464e-03	-2.3288043458184051e-02	3.5557663784860513e-02	8.2830470185007749e-21	3.5557663784860513e-02	-3.5557663784860513e-02
8                       	5.1851633357973638e-02	5.6583211751861226e-03	4.6193312182787515e-02	3.9252238127613998e-02	1.1168307469381220e-02	2.8083930658232777e-02	-8.4578115944257785e-03	-2.0267495503800696e-02	2.6773065590064826e-02	9.7404229882917606e-21	2.6773065590064826e-02	-2.6773065590064826e-02
9                       	2.1280428106763619e-02	-1.0832554776673792e-02	3.2112982883437412e-02	4.1586501658208951e-02	-1.0944535182640030e-02	5.2531036840848977e-02	-3.1737786011744505e-02	-2.1472768830055600e-02	1.0987933466891017e-02	9.2107810294736696e-21	1.0987933466891017e-02	-1.0987933466891017e-02
10                      	4.4690988129658339e-03	-2.0778986628775392e-02	2.5248085441741227e-02	4.4570519156892689e-02	-2.3848499493659359e-02	6.8419018650552041e-02	-4.6133759072105707e-02	-2.3013536035258311e-02	2.3075738968908548e-03	8.6847916439378642e-21	2.3075738968908548e-03	-2.3075738968908548e-03
11                      	-4.2257483450074650e-03	-2.6475162511752193e-02	2.2249414166744728e-02	4.7182659695000205e-02	-3.1078739701220281e-02	7.8261399396220482e-02	-5.4670069548720383e-02	-2.4362288339248458e-02	-2.1819223480757472e-03	7.7797907920684914e-21	-2.1819223480757472e-03	2.1819223480757472e-03
12                      	-1.0140766648012861e-02	-2.9277261272992437e-02	1.9136494624979579e-02	4.6881675015124760e-02	-3.4709513108163274e-02	8.1591188123288041e-02	-5.8150350615725654e-02	-2.4206877948986006e-02	-5.2360821254445475e-03	7.3525041753649710e-21	-5.2360821254445475e-03	5.2360821254445475e-03
13                      	-1.4823817676319193e-02	-3.0143036482686472e-02	1.5319218806367278e-02	4.4023576324210278e-02	-3.6014437015902442e-02	8.0038013340112735e-02	-5.8026225178007582e-02	-2.2731127644526873e-02	-7.6541280812367080e-03	6.2041354153959935e-21	-7.6541280812367080e-03	7.6541280812367080e-03
14                      	-1.6834908534019200e-02	-2.7999105213403326e-02	1.1164196679384128e-02	3.7923956896180257e-02	-3.3592081866564531e-02	7.1516038762744788e-02	-5.2554060314654663e-02	-1.9581650946393726e-02	-8.6925344718138380e-03	5.0535493448460449e-21	-8.6925344718138380e-03	8.6925344718138380e-03
15                      	-1.3823953294793266e-02	-2.2352947333913385e-02	8.5289940391201219e-03	2.9904664747304587e-02	-2.6630944670290854e-02	5.6535609417595438e-02	-4.1583277043943150e-02	-1.5440970686516753e-02	-7.1378582371808413e-03	3.1677020595834098e-21	-7.1378582371808413e-03	7.1378582371808413e-03
16                      	-7.5330730653856114e-03	-1.4078270037349024e-02	6.5451969719634113e-03	1.9970825648258229e-02	-1.6342514962785354e-02	3.6313340611043583e-02	-2.6327927786914465e-02	-1.0311733504656218e-02	-3.8896259618657783e-03	1.9837543462141303e-21	-3.8896259618657783e-03	3.8896259618657783e-03
17                      	-1.5891103940095007e-03	-5.1376814907032773e-03	3.5485710966937770e-03	8.4113711764034760e-03	-5.3130365870754578e-03	1.3724407763478934e-02	-9.5187221752771958e-03	-4.3431262936985274e-03	-8.2052105311601750e-04	1.7249706283191174e-21	-8.2052105311601750e-04	8.2052105311601750e-04
18                      	1.0241891992536411e-03	7.4316674963240722e-04	2.8102244962123393e-04	-4.4751948039056631e-04	1.7483039503698881e-03	-2.1958234307604546e-03	1.9720636905651710e-03	2.3107215000558659e-04	5.2882971726168383e-04	1.7962037390324563e-21	5.2882971726168383e-04	-5.2882971726168383e-04
19                      	4.1717683951986630e-03	5.0771727179061525e-03	-9.0540432270748926e-04	-5.7932549823663726e-03	6.9719484019338616e-03	-1.2765203384300233e-02	9.8685758931170466e-03	2.9912885203068206e-03	2.1540503478476745e-03	1.8055460447240387e-21	2.1540503478476745e-03	-2.1540503478476745e-03
20                      	9.3337664391877975e-03	9.4091159517626071e-03	-7.5349512574809989e-05	-9.1843241521748359e-03	1.2411413086514249e-02	-2.1595737238689086e-02	1.7003575162601668e-02	4.7422327321687083e-03	4.8193957431100394e-03	1.4745872650320294e-21	4.8193957431100394e-03	-4.8193957431100394e-03
21                      	1.3311454816501186e-02	1.2555254564426273e-02	7.5620025207491287e-04	-1.1425666517656698e-02	1.6344424445210885e-02	-2.7770090962867588e-02	2.2057257704039237e-02	5.8995271561756799e-03	6.8732348398927714e-03	1.2653657248705935e-21	6.8732348398927714e-03	-6.8732348398927714e-03
22                      	1.3452413726871381e-02	1.2431371578999161e-02	1.0210421478722190e-03	-1.1049243056724190e-02	1.6104453207079920e-02	-2.7153696263804109e-02	2.1629074735442014e-02	5.7051647155634709e-03	6.9460175452473183e-03	1.2110328119149711e-21	6.9460175452473183e-03	-6.9460175452473183e-03
23                      	1.3944708069290454e-02	1.2625875707428203e-02	1.3188323618622518e-03	-1.0949225518174623e-02	1.6267707017423052e-02	-2.7216932535597680e-02	2.1742319776510366e-02	5.6535216727829751e-03	7.2002087416597792e-03	1.0237995888165732e-21	7.2002087416597792e-03	-7.2002087416597792e-03
24                      	1.6729263957698061e-02	1.4732002929194618e-02	1.9972610285034450e-03	-1.2331743739276898e-02	1.8911736236688154e-02	-3.1243479975965053e-02	2.5077608106326605e-02	6.3673709503455859e-03	8.6379859650859252e-03	6.4838078085123849e-22	8.6379859650859252e-03	-8.6379859650859252e-03
25                      	2.0547466381294722e-02	1.7828495099233552e-02	2.7189712820611706e-03	-1.4631374329287171e-02	2.2810199539396087e-02	-3.7441573868683256e-02	3.0125886704039671e-02	7.5547619085861899e-03	1.0609476105374405e-02	4.4803722699610308e-22	1.0609476105374405e-02	-1.0609476105374405e-02
26                      	2.3363038187003398e-02	2.0102942809353708e-02	3.2600953776496938e-03	-1.6309845930700707e-02	2.5671618487685538e-02	-4.1981464418386252e-02	3.3826541453035895e-02	8.4214237158520052e-03	1.2063268083485418e-02	2.9001467163305636e-22	1.2063268083485418e-02	-1.2063268083485418e-02
27                      	2.5628185466094983e-02	2.1807882586930082e-02	3.8203028791649008e-03	-1.7418352501823230e-02	2.7830404190423073e-02	-4.5248756692246310e-02	3.6539580441334693e-02	8.9937898538825917e-03	1.3232853933473886e-02	2.4587248294005220e-22	1.3232853933473886e-02	-1.3232853933473886e-02
28                      	2.7445212850225460e-02	2.2905337632633298e-02	4.5398752175921653e-03	-1.7784276895577815e-02	2.9253326191675751e-02	-4.7037603087253563e-02	3.8145464639464659e-02	9.1827312075205645e-03	1.4171057615475893e-02	2.0874073577645808e-22	1.4171057615475893e-02	-1.4171057615475893e-02
29                      	2.7340329558901554e-02	2.2409295264532943e-02	4.9310342943686076e-03	-1.6925151445792042e-02	2.8637838279728600e-02	-4.5562989725520649e-02	3.7100414002624621e-02	8.7391304850821683e-03	1.4116902190543937e-02	3.2442820803907527e-22	1.4116902190543937e-02	-1.4116902190543937e-02
30                      	2.4549615233252896e-02	1.9988072580370744e-02	4.5615426528821529e-03	-1.4938348600669329e-02	2.5525233398074429e-02	-4.0463581998743760e-02	3.2994407698409098e-02	7.7132649637442954e-03	1.2675945120437768e-02	4.4654097382431552e-22	1.2675945120437768e-02	-1.2675945120437768e-02
31                      	2.0956462680960984e-02	1.7221492495294265e-02	3.7349701856667188e-03	-1.3059733628943129e-02	2.1945831913716855e-02	-3.5005565542659982e-02	2.8475698728188420e-02	6.7432611548137742e-03	1.0820657201280511e-02	5.9153580982167409e-22	1.0820657201280511e-02	-1.0820657201280511e-02
32                      	1.6476313236400357e-02	1.3903627352529516e-02	2.5726858838708423e-03	-1.0972367371549233e-02	1.7654865723369540e-02	-2.8627233094918769e-02	2.3141049409144153e-02	5.6654707343293366e-03	8.5073774227165232e-03	7.0792767343028995e-22	8.5073774227165232e-03	-8.5073774227165232e-03
33                      	1.2195666473910162e-02	1.0722939845465858e-02	1.4727266284443039e-03	-8.9574849506601200e-03	1.3544419693018098e-02	-2.2501904643678218e-02	1.8023162168348157e-02	4.6251066085107768e-03	6.2971088329340022e-03	8.1514379492272341e-22	6.2971088329340022e-03	-6.2971088329340022e-03
34                      	7.8851986411319595e-03	7.6119608158898627e-03	2.7323782524209744e-04	-7.1064849213234626e-03	9.5029414894191935e-03	-1.6609426410742655e-02	1.3056183950080924e-02	3.6693614953238825e-03	4.0714424356171558e-03	8.8337460606716344e-22	4.0714424356171558e-03	-4.0714424356171558e-03
35                      	3.6922455596910750e-03	4.6212833051834743e-03	-9.2903774549239911e-04	-5.3746779794519505e-03	5.6133788151725705e-03	-1.0988056794624522e-02	8.3007178048985462e-03	2.7751605253379364e-03	1.9064535896444112e-03	8.7263835728025165e-22	1.9064535896444112e-03	-1.9064535896444112e-03
36                      	5.8211693654474012e-04	2.3398267529432205e-03	-1.7577098163984806e-03	-3.9678676905650651e-03	2.6617633994312048e-03	-6.6296310899962704e-03	4.6456972447137370e-03	2.0487682846708506e-03	3.0057018292179355e-04	7.4214115868678204e-22	3.0057018292179355e-04	-3.0057018292179355e-04
37                      	-1.2538176946471002e-03	8.5585753847103264e-04	-2.1096752331181325e-03	-2.8716867978046973e-03	7.6234533679333464e-04	-3.6340321345980321e-03	2.1981887356956834e-03	1.4827663857945829e-03	-6.4739606455634525e-04	6.1184792593211838e-22	-6.4739606455634525e-04	6.4739606455634525e-04
38                      	-1.8857751780925595e-03	1.8484889340450729e-04	-2.0706240714970666e-03	-2.1840972381641822e-03	-7.7093755336518730e-05	-2.1070034828276638e-03	1.0149548637455724e-03	1.1277364824507871e-03	-9.7370090894975312e-04	4.4668563928559495e-22	-9.7370090894975312e-04	9.7370090894975312e-04
39                      	-1.6855686041132060e-03	4.0564606525458269e-05	-1.7261332106386642e-03	-1.7107896583931055e-03	-2.2009436348595623e-04	-1.4906952949071495e-03	6.3530046571059660e-04	8.8334890858206120e-04	-8.7032627271204743e-04	2.9334737394017128e-22	-8.7032627271204743e-04	8.7032627271204743e-04
40                      	-1.5121628612457443e-03	-2.1171330788103882e-04	-1.3004495533647054e-03	-1.0542825668291200e-03	-4.8510935505042760e-04	-5.6917321177869242e-04	4.2031928364132400e-05	5.4436812274183323e-04	-7.8078997410727926e-04	2.9671649092702646e-22	-7.8078997410727926e-04	7.8078997410727926e-04
41                      	-1.4941542114404462e-03	-6.4746455762478775e-04	-8.4668965381565838e-04	-1.9292050453926092e-04	-9.7360057929477863e-04	7.8068007475551760e-04	-8.7714032702514817e-04	9.9612548095435284e-05	-7.7149139022088351e-04	2.2963078323586017e-22	-7.7149139022088351e-04	7.7149139022088351e-04
42                      	-1.5440421875492288e-03	-1.1339600944006729e-03	-4.1008209314855591e-04	7.0097046956692438e-04	-1.5236251843141052e-03	2.2245956538810298e-03	-1.8741104190975674e-03	-3.6193900062605848e-04	-7.9725054128358859e-04	2.3651966679006276e-22	-7.9725054128358859e-04	7.9725054128358859e-04
43                      	-1.4631068813847228e-03	-1.4402976256616814e-03	-2.2809255723041644e-05	1.3726311430418475e-03	-1.8523999341335930e-03	3.2250310771754407e-03	-2.5387155056545169e-03	-7.0874418496931978e-04	-7.5546041587838599e-04	2.2652176039336623e-22	-7.5546041587838599e-04	7.5546041587838599e-04
44                      	-1.2744382930591506e-03	-1.5225412168871060e-03	2.4810292382795542e-04	1.7146110982873693e-03	-1.9130358755168294e-03	3.6276469738041987e-03	-2.7703414246605142e-03	-8.8532207035753080e-04	-6.5804330164492147e-04	2.6927534370771336e-22	-6.5804330164492147e-04	6.5804330164492147e-04
45                      	-1.0625982069083415e-03	-1.4542811208050348e-03	3.9168291389669332e-04	1.7875474513250910e-03	-1.8024928961307095e-03	3.5900403474558003e-03	-2.6962666217932550e-03	-9.2298201735086405e-04	-5.4866181925332695e-04	2.8051306411915947e-22	-5.4866181925332695e-04	5.4866181925332695e-04
46                      	-7.9014123361370342e-04	-1.2490219424169599e-03	4.5888070880325643e-04	1.6538550989664120e-03	-1.5332584012322213e-03	3.1871135001986330e-03	-2.3601859507154273e-03	-8.5395132561010814e-04	-4.0798142127766403e-04	2.0658548644807001e-22	-4.0798142127766403e-04	4.0798142127766403e-04
47                      	-6.0659624742586391e-04	-1.0461416200083016e-03	4.3954537258243784e-04	1.4386715814328061e-03	-1.2799655196774297e-03	2.7186371011102359e-03	-1.9993013103938328e-03	-7.4284349629536979e-04	-3.1320982710224374e-04	7.6980654907250204e-23	-3.1320982710224374e-04	3.1320982710224374e-04
48                      	-4.4577249754941723e-04	-8.1409694995371058e-04	3.6832445240429329e-04	1.1450030035492068e-03	-9.9729552831562870e-04	2.1422985318648355e-03	-1.5697970300902323e-03	-5.9121070117900190e-04	-2.3017011311375138e-04	-3.3404933835932619e-23	-2.3017011311375138e-04	2.3017011311375138e-04
49                      	-2.8618829256516344e-04	-5.7791251121617527e-04	2.9172421865101183e-04	8.4211658018784477e-04	-7.0990249171888023e-04	1.5520190719067249e-03	-1.1309607818128025e-03	-4.3481836493359355e-04	-1.4777042557286192e-04	1.6726065669614966e-23	-1.4777042557286192e-04	1.4777042557286192e-04
50                      	-4.8419459577098821e-05	-2.9480082675503890e-04	2.4638136717794007e-04	5.2405617513763113e-04	-3.5893694765537184e-04	8.8299312279300308e-04	-6.2096503522418741e-04	-2.7059109696648951e-04	-2.5000897428698186e-05	8.5916901006552791e-23	-2.5000897428698186e-05	2.5000897428698186e-05
51                      	3.3162758590438705e-04	6.7994361318824198e-05	2.6363322458556286e-04	1.8944775999880380e-04	1.0084123896371017e-04	8.8606521035093649e-05	6.1173589643082538e-06	-9.7819431633369339e-05	1.7123254435585990e-04	1.0574823860100809e-22	1.7123254435585990e-04	-1.7123254435585990e-04
52                      	1.0081092641491271e-03	6.5120167033333074e-04	3.5690759381579640e-04	-2.8498097283027044e-04	8.4765103642106012e-04	-1.1326320092513306e-03	9.9014152283619528e-04	1.4714703825876715e-04	5.2052700567177155e-04	1.0901192530000322e-22	5.2052700567177155e-04	-5.2052700567177155e-04
53                      	2.0118835342265067e-03	1.4786137420163905e-03	5.3326979221011604e-04	-9.1542800202759503e-04	1.9111544627515215e-03	-2.8265824647791165e-03	2.3688684637653188e-03	4.7267197490313725e-04	1.0388156810712020e-03	9.3695103061961382e-23	1.0388156810712020e-03	-1.0388156810712020e-03
54                      	3.1989585246523320e-03	2.4593028252905776e-03	7.3965569936175414e-04	-1.6652279130829743e-03	3.1707532532115057e-03	-4.8359811662944795e-03	4.0033672097529926e-03	8.5982356296441175e-04	1.6517498264544720e-03	7.9968313643775029e-23	1.6517498264544720e-03	-1.6517498264544720e-03
55                      	4.3224462541635224e-03	3.3926635540355941e-03	9.2978270012792849e-04	-2.3849415863789413e-03	4.3691674148086538e-03	-6.7541090011875946e-03	5.5616382079981246e-03	1.2314404269538326e-03	2.2318513338491393e-03	6.4705032867147393e-23	2.2318513338491393e-03	-2.2318513338491393e-03
56                      	5.1659763105443594e-03	4.1058265924504549e-03	1.0601497180939051e-03	-2.9492946947883045e-03	5.2840105525123211e-03	-8.2333052473006259e-03	6.7586578999064726e-03	1.5228384371782748e-03	2.6673995328954547e-03	9.2995771662246433e-23	2.6673995328954547e-03	-2.6673995328954547e-03
57                      	5.5851751514042342e-03	4.4725606745132079e-03	1.1126144768910263e-03	-3.2536187863050265e-03	5.7544425906356222e-03	-9.0080613769406483e-03	7.3812519837881353e-03	1.6799730988110910e-03	2.8838486075878091e-03	1.4282346680600929e-22	2.8838486075878091e-03	-2.8838486075878091e-03
58                      	5.6142385239254539e-03	4.5041270757841048e-03	1.1101114481413493e-03	-3.2866100698059602e-03	5.7973342210624291e-03	-9.0839442908683884e-03	7.4406392559654092e-03	1.6970078138213776e-03	2.8988551855562805e-03	2.0411342348646395e-22	2.8988551855562805e-03	-2.8988551855562805e-03
59                      	5.3527967965763196e-03	4.2659553880180596e-03	1.0868414085582598e-03	-3.0785091066920845e-03	5.4988218499944404e-03	-8.5773309566865262e-03	7.0380764033404824e-03	1.5895569897299002e-03	2.7638623982322178e-03	2.7782375797337224e-22	2.7638623982322178e-03	-2.7638623982322178e-03
60                      	4.8329823753409757e-03	3.7632966494692685e-03	1.0696857258717070e-03	-2.6083700715849793e-03	4.8665674716198122e-03	-7.4749375432047911e-03	6.1707525074123021e-03	1.3468054617987808e-03	2.4954614879211588e-03	3.6266281082785948e-22	2.4954614879211588e-03	-2.4954614879211588e-03
61                      	4.1762036056439879e-03	3.0893635677376168e-03	1.0868400379063709e-03	-1.9391525320517750e-03	4.0198223784437140e-03	-5.9589749104954895e-03	4.9893986444696017e-03	1.0012617649156228e-03	2.1563404238292483e-03	4.2946045065987564e-22	2.1563404238292483e-03	-2.1563404238292483e-03
62                      	3.3806002426383149e-03	2.2718160257033490e-03	1.1087842169349659e-03	-1.1262270046934343e-03	2.9888920012356183e-03	-4.1151190059290528e-03	3.5520055035823356e-03	5.8151590438419146e-04	1.7455386873753396e-03	4.6723247371191422e-22	1.7455386873753396e-03	-1.7455386873753396e-03
63                      	2.4890888826986169e-03	1.3613398216886809e-03	1.1277490610099362e-03	-2.2619864799903707e-04	1.8370707592116424e-03	-2.0632694072106796e-03	1.9501700832111610e-03	1.1679538033937228e-04	1.2852158283215085e-03	4.9472845673420883e-22	1.2852158283215085e-03	-1.2852158283215085e-03
64                      	1.6420219225493475e-03	5.0749900425780387e-04	1.1345229182915435e-03	6.0718138510862114e-04	7.5396299144207910e-04	-1.4678160633345801e-04	4.5037229888776858e-04	-3.1351195701686976e-04	8.4784138484574208e-04	5.2664107550523297e-22	8.4784138484574208e-04	-8.4784138484574208e-04
65                      	1.0626006301455181e-03	-6.2044709091429648e-05	1.1246453392369478e-03	1.1491365657863406e-03	2.8008338327580002e-05	1.1211282274587605e-03	-5.4655994456559020e-04	-5.9334502416418878e-04	5.4866307046729391e-04	5.3552265599991794e-22	5.4866307046729391e-04	-5.4866307046729391e-04
66                      	9.0496972067217714e-04	-1.9406006498715793e-04	1.0990297856593350e-03	1.2521692857526165e-03	-1.4443217047090771e-04	1.3966014562235239e-03	-7.7051681334721592e-04	-6.4654492532324650e-04	4.6727194727517633e-04	5.1865668768488538e-22	4.6727194727517633e-04	-4.6727194727517633e-04
67                      	1.1561720382687725e-03	4.8638607450223597e-05	1.1075334308185490e-03	1.0253854935148973e-03	1.6159090475627687e-04	8.6379458875862050e-04	-3.5110184200117179e-04	-5.2944741168416262e-04	5.9697771910609862e-04	4.7320546412989690e-22	5.9697771910609862e-04	-5.9697771910609862e-04
68                      	1.6189433074797267e-03	4.4990001599034564e-04	1.1690432914893808e-03	6.9638557690729352e-04	6.7170447586599197e-04	2.4681101041301509e-05	3.2351168741234527e-04	-3.5957163774951768e-04	8.3592497575750587e-04	4.1581244633566002e-22	8.3592497575750587e-04	-8.3592497575750587e-04
69                      	2.1982528288843066e-03	9.7770610508980779e-04	1.2205467237944988e-03	2.3515578899884610e-04	1.3410781020217718e-03	-1.1059223130229258e-03	1.2235002075223487e-03	-1.2142030935234546e-04	1.1350455783128122e-03	3.8587080441622602e-22	1.1350455783128122e-03	-1.1350455783128122e-03
70                      	2.8338816400361052e-03	1.5787881640544896e-03	1.2550934759816153e-03	-3.1345118528575822e-04	2.1023366621792847e-03	-2.4157878474650430e-03	2.2590622548221639e-03	1.6184734403643721e-04	1.4632460755741978e-03	3.8621302197776224e-22	1.4632460755741978e-03	-1.4632460755741978e-03
71                      	3.4477820945025255e-03	2.1868783424539451e-03	1.2609037520485806e-03	-8.9667159703810573e-04	2.8697027336408404e-03	-3.7663743306789463e-03	3.3180385321598931e-03	4.6298729520268222e-04	1.7802273559849634e-03	3.8268923418328802e-22	1.7802273559849634e-03	-1.7802273559849634e-03
72                      	3.8871752391963030e-03	2.6667910670961623e-03	1.2203841721001407e-03	-1.4006345249012110e-03	3.4700174229422105e-03	-4.8706519478434220e-03	4.1703346853928158e-03	7.2320344749801093e-04	2.0071035548791367e-03	3.7861493453130416e-22	2.0071035548791367e-03	-2.0071035548791367e-03
73                      	4.1426513900487726e-03	2.9974187638205220e-03	1.1452326262282502e-03	-1.7935726522254306e-03	3.8779113183029052e-03	-5.6714839705283354e-03	4.7746976444156203e-03	9.2609306879613612e-04	2.1390160772147278e-03	3.4813654283362020e-22	2.1390160772147278e-03	-2.1390160772147278e-03
74                      	4.2501983015036503e-03	3.1983257825226145e-03	1.0518725189810362e-03	-2.0785275273535542e-03	4.1201024169816580e-03	-6.1986299443352122e-03	5.1593661806584356e-03	1.0732266317707892e-03	2.1945468354169187e-03	3.2309139114799137e-22	2.1945468354169187e-03	-2.1945468354169187e-03
75                      	4.2405237055174443e-03	3.3005786288488421e-03	9.3994507666860178e-04	-2.2859299587568143e-03	4.2358637319455557e-03	-6.5217936907023709e-03	5.3788287113239628e-03	1.1803167760901202e-03	2.1895514557900508e-03	3.0618433664348252e-22	2.1895514557900508e-03	-2.1895514557900508e-03
76                      	4.1376499655365094e-03	3.3223903719478516e-03	8.1525959358865797e-04	-2.4277911967655486e-03	4.2485102817418630e-03	-6.6763014785074124e-03	5.4624058801246381e-03	1.2535653891795969e-03	2.1364336423358469e-03	2.5204471600288339e-22	2.1364336423358469e-03	-2.1364336423358469e-03
77                      	3.9527644599862306e-03	3.2560003402929152e-03	6.9676411969331505e-04	-2.4782477326059410e-03	4.1504401287119118e-03	-6.6286878613178524e-03	5.3895639950148821e-03	1.2796181102998003e-03	2.0409698845680535e-03	2.4058355251740811e-22	2.0409698845680535e-03	-2.0409698845680535e-03
78                      	3.8170201295673542e-03	3.1745717166497605e-03	6.4244841291759378e-04	-2.4519928194368461e-03	4.0401042692527868e-03	-6.4920970886896325e-03	5.2661006789712092e-03	1.2660616518660834e-03	1.9708796747439279e-03	2.1332166255514865e-22	1.9708796747439279e-03	-1.9708796747439279e-03
79                      	3.6985840259277101e-03	3.0923470564720480e-03	6.0623696945566203e-04	-2.4074357171740939e-03	3.9310118402390700e-03	-6.3384475574131639e-03	5.1347296988261170e-03	1.2430550435081930e-03	1.9097263924724784e-03	2.2197204563349782e-22	1.9097263924724784e-03	-1.9097263924724784e-03
80                      	3.6110340230910520e-03	3.0274161697904679e-03	5.8361785330058452e-04	-2.3664629267275477e-03	3.8454363426141131e-03	-6.2118992693416608e-03	5.0286678059778874e-03	1.2218991582449417e-03	1.8645208354522418e-03	2.3448897869310383e-22	1.8645208354522418e-03	-1.8645208354522418e-03
81                      	3.6169302207957111e-03	3.0318790088764360e-03	5.8505121191927483e-04	-2.3693965375597833e-03	3.8501244205752867e-03	-6.2195209581350696e-03	5.0348226893551784e-03	1.2234138984785806e-03	1.8675652774043218e-03	2.4225931915025581e-22	1.8675652774043218e-03	-1.8675652774043218e-03
82                      	3.7548313100307235e-03	3.1370841815699696e-03	6.1774712846075438e-04	-2.4396111969981625e-03	3.9851622824656355e-03	-6.4247734794637976e-03	5.2049678809647166e-03	1.2596685265546075e-03	1.9387691077936431e-03	2.6410698679205536e-22	1.9387691077936431e-03	-1.9387691077936431e-03
83                      	3.9546524415960838e-03	3.2888073203812115e-03	6.6584512121487178e-04	-2.5399570662813296e-03	4.1805475591584068e-03	-6.7205046254397360e-03	5.4505260922990710e-03	1.3114810995831700e-03	2.0419447247456909e-03	2.8075826741795183e-22	2.0419447247456909e-03	-2.0419447247456909e-03
84                      	4.1775857449503195e-03	3.4612725662216018e-03	7.1631317872871802e-04	-2.6580935840912114e-03	4.4025650526574754e-03	-7.0606586367486877e-03	5.7316118447030820e-03	1.3724796937464418e-03	2.1570540774580095e-03	2.8854824996217609e-22	2.1570540774580095e-03	-2.1570540774580095e-03
85                      	4.3950670329274272e-03	3.6325268305327902e-03	7.6254020239463754e-04	-2.7791642664882110e-03	4.6228380569860250e-03	-7.4020023234742357e-03	6.0124201902301303e-03	1.4349933140690762e-03	2.2693483372631827e-03	3.0439606519122779e-22	2.2693483372631827e-03	-2.2693483372631827e-03
86                      	4.5856197096757522e-03	3.7854199577964614e-03	8.0019975187929117e-04	-2.8907512120590318e-03	4.8191463785914367e-03	-7.7098975906504689e-03	6.2645219846209528e-03	1.4926101029585851e-03	2.3677382814665643e-03	3.2492090475355014e-22	2.3677382814665643e-03	-2.3677382814665643e-03
87                      	4.7297348089063189e-03	3.9046176670804521e-03	8.2511714182586680e-04	-2.9820479769870323e-03	4.9717104954245033e-03	-7.9537584724115352e-03	6.4627344839180197e-03	1.5397502626272926e-03	2.4421506529646994e-03	3.5321426208893321e-22	2.4421506529646994e-03	-2.4421506529646994e-03
88                      	4.8136376473674573e-03	3.9787697401735536e-03	8.3486790719390375e-04	-3.0444112686448528e-03	5.0659140459748293e-03	-8.1103253146196826e-03	6.5881196802972559e-03	1.5719509164898251e-03	2.4854730336080363e-03	3.6634338054190735e-22	2.4854730336080363e-03	-2.4854730336080363e-03
89                      	4.8449778731623821e-03	4.0121599920257475e-03	8.3281788113663438e-04	-3.0787300187723678e-03	5.1075037018740782e-03	-8.1862337206464464e-03	6.6468687112602618e-03	1.5896710554445567e-03	2.5016552416982228e-03	3.7101087957588470e-22	2.5016552416982228e-03	-2.5016552416982228e-03
90                      	4.8378804438074068e-03	4.0132217678793347e-03	8.2465867592807288e-04	-3.0876591966363469e-03	5.1077568666878237e-03	-8.1954160633241711e-03	6.6515864650059974e-03	1.5942815459756307e-03	2.4979905559528444e-03	3.6857699851946651e-22	2.4979905559528444e-03	-2.4979905559528444e-03
91                      	4.8117622485881421e-03	3.9982724105932501e-03	8.1348983799489117e-04	-3.0839983139718252e-03	5.0876291875210271e-03	-8.1716275014928532e-03	6.6296283445069389e-03	1.5923912862991798e-03	2.4845046904474694e-03	3.6565732008677146e-22	2.4845046904474694e-03	-2.4845046904474694e-03
92                      	4.7804738177118864e-03	3.9784613339751192e-03	8.0201248373676674e-04	-3.0759283170029642e-03	5.0614378829342190e-03	-8.1373661999371832e-03	6.5994020414357011e-03	1.5882244251191762e-03	2.4683492261388163e-03	3.6127513797924893e-22	2.4683492261388163e-03	-2.4683492261388163e-03
93                      	4.7499598598484604e-03	3.9576659679130405e-03	7.9229389193541996e-04	-3.0652020735732646e-03	5.0342882859216532e-03	-8.0994903594949173e-03	6.5668893227082857e-03	1.5826860379888103e-03	2.4525936531243683e-03	3.4035469615333547e-22	2.4525936531243683e-03	-2.4525936531243683e-03
94                      	4.7306394749223211e-03	3.9455111480998515e-03	7.8512832682246954e-04	-3.0603707066799942e-03	5.0183250822038563e-03	-8.0786957888838492e-03	6.5485104355438532e-03	1.5801914106386909e-03	2.4426177680971451e-03	3.0797328252621088e-22	2.4426177680971451e-03	-2.4426177680971451e-03