# Solver information    
# Time                  	U_solver                	Ux_initial              	Ux_final                	Ux_iters                	Uz_initial              	Uz_final                	Uz_iters                	U_converged             	k_solver                	k_initial               	k_final                 	k_iters                 	k_converged             	omega_solver            	omega_initial           	omega_final             	omega_iters             	omega_converged         	p_solver                	p_initial               	p_final                 	p_iters                 	p_converged             
1                       	smoothSolver	1.0000000000000000e+00	7.2069055151219835e-02	6	1.0000000000000000e+00	7.5437559989823155e-02	7	false	smoothSolver	9.9999999997117650e-01	7.0002003410605709e-02	7	true	smoothSolver	1.6706186606020160e-01	1.4857004154528069e-02	4	true	GAMG	1.0000000000000000e+00	9.1590013144425206e-02	7	true
2                       	smoothSolver	3.9757277098813709e-01	3.6375125696626903e-02	6	4.6778589500239443e-01	4.4473130871591542e-02	6	false	smoothSolver	2.6814647325527369e-01	1.8183660175002971e-02	2	true	smoothSolver	1.3794617899235451e-01	1.1078532657056781e-02	2	true	GAMG	3.6487202480712638e-01	1.3474058545785050e-02	3	true
3                       	smoothSolver	6.5555623500989990e-01	2.6441876328015191e-02	3	5.1830267559860288e-01	2.6980808747519611e-02	3	false	smoothSolver	1.4828181076970229e-01	8.2786655490121111e-03	2	true	smoothSolver	2.4623573434340360e-01	1.8668125264882259e-02	1	true	GAMG	4.5695788443093333e-01	3.0203400857883679e-02	3	true
4                       	smoothSolver	5.7480250555145407e-01	2.8091723205795911e-02	3	4.9871358409576572e-01	4.9862007452439010e-02	2	false	smoothSolver	8.1031715065642412e-02	3.7187599638078780e-03	2	true	smoothSolver	1.2851092567561700e-01	1.2515942872209069e-02	1	true	GAMG	1.1657899023525030e-01	1.0541221042731979e-02	2	true
5                       	smoothSolver	4.8099176312764041e-01	3.2130438946007922e-02	3	4.0212857304535682e-01	2.7713549157997511e-02	3	false	smoothSolver	5.1490415412789203e-02	2.2866527715575389e-03	2	true	smoothSolver	6.5881694773002084e-02	1.5859367723541600e-03	2	true	GAMG	8.2213361320588957e-02	7.9869852564732075e-03	2	true
6                       	smoothSolver	4.2788649143522162e-01	3.2857853883417387e-02	3	3.4963661252842598e-01	2.5051601033864852e-02	3	false	smoothSolver	4.4492050043320533e-02	1.8815083937308401e-03	2	true	smoothSolver	4.3205875748888019e-02	1.4990697750656709e-03	2	true	GAMG	7.1753776759981985e-02	6.7091230764179961e-03	2	true
7                       	smoothSolver	3.8641253003281539e-01	3.6611924761218842e-02	3	2.9023264240719099e-01	2.4624377437515419e-02	3	false	smoothSolver	3.9129906664966713e-02	1.8755489739265339e-03	2	true	smoothSolver	3.7782500334339858e-02	1.5614711900588951e-03	2	true	GAMG	6.6465433912995545e-02	5.9468723660354474e-03	2	true
8                       	smoothSolver	3.5865398802982479e-01	3.4387181473066283e-02	3	2.5698196293191727e-01	2.3621328929852390e-02	3	false	smoothSolver	3.8022545922949742e-02	1.6444957568459741e-03	2	true	smoothSolver	3.1338042793913258e-02	1.3339457365071901e-03	2	true	GAMG	6.3803249426875777e-02	6.2674040176062540e-03	2	true
9                       	smoothSolver	3.2423898859770861e-01	3.2263912737765132e-02	3	2.2929126379789250e-01	2.2928219474322949e-02	3	false	smoothSolver	3.7534957154609180e-02	1.6030046301083610e-03	2	true	smoothSolver	2.7660125488643768e-02	1.0386778258059659e-03	2	true	GAMG	6.1535075833679842e-02	5.5357518294347182e-03	2	true
10                      	smoothSolver	2.8821981744529129e-01	1.7961487080086071e-02	4	2.1510069831017001e-01	1.2971460710620140e-02	4	false	smoothSolver	3.6535175476072872e-02	1.5066702246379531e-03	2	true	smoothSolver	2.1878908816313949e-02	9.5256014705627848e-04	2	true	GAMG	5.8043752628280869e-02	5.7113554721605064e-03	2	true
11                      	smoothSolver	2.4864853284751820e-01	1.6328083720622229e-02	4	1.9018320973690689e-01	1.3326118317394340e-02	4	false	smoothSolver	3.5493003834521988e-02	1.6871434437804990e-03	2	true	smoothSolver	2.4218849781076721e-02	1.0643773021018329e-03	2	true	GAMG	5.7126332913550383e-02	5.4815087642939350e-03	2	true
12                      	smoothSolver	2.3076768768408071e-01	1.5476570741594271e-02	4	1.8593777525315910e-01	1.3330899387654331e-02	4	false	smoothSolver	4.0009193325162430e-02	1.3976082986892071e-03	2	true	smoothSolver	2.0411265666225600e-02	6.8781314963571507e-04	2	true	GAMG	5.4954876460866948e-02	5.4868946546445157e-03	2	true
13                      	smoothSolver	2.0970268468250400e-01	1.4519218389391729e-02	4	1.6235933156381990e-01	1.3371650764132860e-02	4	false	smoothSolver	5.1665493978972812e-02	1.6920481214055369e-03	2	true	smoothSolver	2.9542974573491351e-02	1.2393298598186279e-03	2	true	GAMG	5.5812430559369283e-02	3.3399675344031351e-03	3	true
14                      	smoothSolver	2.0803470255423540e-01	1.4022209742719310e-02	4	1.6058101082178061e-01	1.3706006701199560e-02	4	false	smoothSolver	4.4541532330544482e-02	1.3499429717566049e-03	2	true	smoothSolver	2.6051161135815060e-02	9.3156638455072589e-04	2	true	GAMG	5.5023984605975740e-02	3.5431338473514069e-03	3	true
15                      	smoothSolver	1.8588835190902539e-01	1.3504856080721220e-02	4	1.5747071983583771e-01	1.4669914838914749e-02	4	false	smoothSolver	4.1256159334874233e-02	1.4404695083113099e-03	2	true	smoothSolver	1.7438035313676579e-02	7.8165723934354460e-04	2	true	GAMG	5.7746120050088723e-02	3.6808804398393590e-03	3	true
16                      	smoothSolver	1.7477245307173561e-01	1.3187596452190231e-02	4	1.6141687719151840e-01	1.5683460305367630e-02	4	false	smoothSolver	3.6092357664277368e-02	1.3508155906414351e-03	2	true	smoothSolver	1.4882794072648040e-02	6.5438462201282421e-04	2	true	GAMG	5.8674533911578702e-02	3.8373459963060011e-03	3	true
17                      	smoothSolver	1.5921135321300789e-01	1.3735743550547240e-02	4	1.6582265752981071e-01	1.6141046122862459e-02	4	false	smoothSolver	3.3618216065252497e-02	1.1287917797658060e-03	2	true	smoothSolver	1.2802504299078570e-02	4.2968348220752167e-04	2	true	GAMG	5.8776439552901953e-02	4.0494251165333764e-03	3	true
18                      	smoothSolver	1.5112556341188610e-01	1.3777967815764571e-02	4	1.6614413857993859e-01	1.6364907033345741e-02	4	false	smoothSolver	3.3875028249637180e-02	1.3412588162379001e-03	2	true	smoothSolver	1.2117504256870500e-02	4.8065554888741509e-04	2	true	GAMG	5.8426287264257713e-02	4.3783218234022588e-03	3	true
19                      	smoothSolver	1.4057589556440370e-01	1.3726483055127910e-02	4	1.7153992020031750e-01	1.6727056010648271e-02	4	false	smoothSolver	3.1593792045196738e-02	1.2005968827154281e-03	2	true	smoothSolver	1.1814851397756640e-02	4.2782529505124440e-04	2	true	GAMG	5.7686875104668613e-02	4.0888472314186486e-03	3	true
20                      	smoothSolver	1.3363152942112461e-01	9.5596928813755314e-03	5	1.6786119691802981e-01	1.6609164063395920e-02	4	false	smoothSolver	3.3122400620285618e-02	1.8382916649281381e-03	2	true	smoothSolver	1.1413495159113151e-02	4.9724927667611643e-04	2	true	GAMG	5.6690657909700487e-02	4.0486471314273628e-03	3	true
21                      	smoothSolver	1.2687463127893839e-01	9.3958997646394135e-03	5	1.6124211244245570e-01	1.6104696737432391e-02	4	false	smoothSolver	3.2750198607675293e-02	1.2431066624233279e-03	2	true	smoothSolver	1.0301247901489599e-02	4.6468572935679691e-04	2	true	GAMG	5.6119069703145917e-02	4.0006182919820306e-03	3	true
22                      	smoothSolver	1.1997705745659420e-01	8.9605277150882866e-03	5	1.4938221670384341e-01	1.0058099080115970e-02	5	false	smoothSolver	3.2166279843837547e-02	9.9388474261145367e-04	2	true	smoothSolver	8.7890162124965084e-03	4.6467498491644001e-04	2	true	GAMG	5.5331728479807607e-02	3.8828705700246469e-03	3	true
23                      	smoothSolver	1.1430480829883780e-01	8.9482836061524941e-03	5	1.3867441388696561e-01	9.3061259657147115e-03	5	false	smoothSolver	2.9847267760310100e-02	9.7763822587111247e-04	2	true	smoothSolver	7.4609907826418374e-03	3.5509643294799397e-04	2	true	GAMG	5.5272250666016258e-02	3.9557281334579308e-03	3	true
24                      	smoothSolver	1.0831630660637710e-01	8.6011940899850606e-03	5	1.2670601601211071e-01	8.6960534647793353e-03	5	false	smoothSolver	3.0390596500828770e-02	1.0873879933504999e-03	2	true	smoothSolver	6.8338020697575079e-03	3.3949488244232058e-04	2	true	GAMG	5.3394338313611671e-02	4.0372204821923470e-03	3	true
25                      	smoothSolver	1.0250944104928610e-01	7.5285754480879140e-03	5	1.1927269318545140e-01	8.0520227749037599e-03	5	false	smoothSolver	2.9899362429820331e-02	1.3897968466304530e-03	2	true	smoothSolver	6.3215832187748459e-03	2.7924828587737560e-04	2	true	GAMG	5.2168594738039038e-02	4.0628843455828307e-03	3	true
26                      	smoothSolver	9.6704326522166151e-02	6.7016022426517469e-03	5	1.1503196219703060e-01	7.9017497724291532e-03	5	false	smoothSolver	2.9967303490003299e-02	1.1024369961388000e-03	2	true	smoothSolver	5.3190579478603504e-03	2.1597151920469719e-04	2	true	GAMG	5.4519920782534897e-02	4.2074812366447098e-03	3	true
27                      	smoothSolver	9.2496742736802126e-02	6.6645834527153331e-03	5	1.1616089938452891e-01	7.7941577458912831e-03	5	false	smoothSolver	2.0234295178905910e-02	6.8124126084120743e-04	2	true	smoothSolver	4.4047432418541990e-03	1.8914275682601440e-04	2	true	GAMG	5.7764727676970072e-02	4.1920673240418991e-03	3	true
28                      	smoothSolver	8.8733501477866947e-02	6.8076387926335616e-03	5	1.0893470085693220e-01	7.8615452773588869e-03	5	false	smoothSolver	2.1340554795729501e-02	8.7637830216919269e-04	2	true	smoothSolver	4.1088967650064296e-03	1.9155701053355850e-04	2	true	GAMG	5.8584399374754341e-02	3.9649336067166712e-03	3	true
29                      	smoothSolver	8.7200188550357841e-02	6.7755969585915300e-03	5	1.0571797494763240e-01	8.0305158062837067e-03	5	false	smoothSolver	1.8735665860888279e-02	8.9302964313554042e-04	2	true	smoothSolver	3.8263830180924612e-03	1.5747601175895721e-04	2	true	GAMG	5.7435822655076151e-02	3.8666596552833841e-03	3	true
30                      	smoothSolver	8.4982409345849955e-02	6.6846184228922922e-03	5	1.0210340747463920e-01	8.2036223209499652e-03	5	false	smoothSolver	1.6845588847900710e-02	8.4503013574911223e-04	2	true	smoothSolver	3.3011208479212760e-03	1.4469747784721411e-04	2	true	GAMG	5.7749712525084353e-02	3.8786079591705712e-03	3	true
31                      	smoothSolver	8.2205499155820538e-02	6.6894511932521720e-03	5	1.0053367193162220e-01	8.3864286873575229e-03	5	false	smoothSolver	1.5532947317081471e-02	9.1123194337710482e-04	2	true	smoothSolver	2.8655274784577939e-03	1.3680313900686121e-04	2	true	GAMG	5.6073163452832933e-02	3.6121691324942770e-03	3	true
32                      	smoothSolver	8.0289439092227591e-02	6.6999428835153377e-03	5	1.0408578933017590e-01	8.6023074171456670e-03	5	false	smoothSolver	1.4504734389363271e-02	8.8554026563944250e-04	2	true	smoothSolver	2.5741076944364302e-03	1.2454411965678500e-04	2	true	GAMG	5.5189186724015647e-02	3.4403545028824029e-03	3	true
33                      	smoothSolver	7.9293254363959814e-02	6.7075831608379424e-03	5	1.0812818158475521e-01	9.0141030791300557e-03	5	false	smoothSolver	1.3282333029938481e-02	8.6353699086363814e-04	2	true	smoothSolver	2.3901778960681011e-03	1.2046342827102031e-04	2	true	GAMG	5.4312776510325650e-02	3.2388152861985570e-03	3	true
34                      	smoothSolver	7.8340918452059219e-02	6.7555179707207702e-03	5	1.1100866461795100e-01	9.4289248087338646e-03	5	false	smoothSolver	1.2913563969601380e-02	8.0726187147897230e-04	2	true	smoothSolver	2.2648855476884899e-03	1.1177955540750500e-04	2	true	GAMG	5.3954170375517682e-02	3.0905875381857838e-03	3	true
35                      	smoothSolver	7.8221663054498194e-02	6.8369603848083384e-03	5	1.1209446905408950e-01	9.7708071082021255e-03	5	false	smoothSolver	1.1730707340138889e-02	8.4061362912111884e-04	2	true	smoothSolver	2.0531882875265660e-03	9.6235080786921182e-05	2	true	GAMG	5.4825258456929857e-02	2.9229816743936311e-03	3	true
36                      	smoothSolver	7.8433087405854460e-02	6.9622941401215992e-03	5	1.1271393711228669e-01	1.0288647394566190e-02	5	false	smoothSolver	1.0980020002150120e-02	7.8401361022431462e-04	2	true	smoothSolver	1.9407760660864689e-03	9.1852988955085969e-05	2	true	GAMG	5.7729152619054848e-02	2.8775531146766412e-03	3	true
37                      	smoothSolver	7.8600922356062433e-02	7.0173871097675648e-03	5	1.1387683925359700e-01	1.0763247653342941e-02	5	false	smoothSolver	1.0521187816867930e-02	7.5893494737941283e-04	2	true	smoothSolver	1.7627666233203359e-03	8.5666699131916140e-05	2	true	GAMG	6.2796479608210970e-02	3.0756653489930111e-03	3	true
38                      	smoothSolver	7.8889974756567449e-02	7.0717466097891587e-03	5	1.1486176840861580e-01	1.1222255475096560e-02	5	false	smoothSolver	9.7622454899909481e-03	6.8684389257787936e-04	2	true	smoothSolver	1.6842461751210680e-03	8.3790978222831523e-05	2	true	GAMG	6.7031735272615731e-02	3.3250901276448840e-03	3	true
39                      	smoothSolver	7.8874471469696880e-02	7.0913208934018116e-03	5	1.1427944924844530e-01	1.1378810578939550e-02	5	false	smoothSolver	9.4342306893944270e-03	6.6105209405229153e-04	2	true	smoothSolver	1.5957507009988221e-03	7.7738177442179921e-05	2	true	GAMG	6.7952539198877809e-02	3.3584487170319551e-03	3	true
40                      	smoothSolver	7.8709826877175940e-02	7.0578230234949139e-03	5	1.1273733192935510e-01	1.1264969161416520e-02	5	false	smoothSolver	9.0467213600129107e-03	6.2975490436424230e-04	2	true	smoothSolver	1.5409743728742879e-03	7.2802917505847785e-05	2	true	GAMG	6.9323597910648932e-02	3.4194261719365520e-03	3	true
41                      	smoothSolver	7.8006958169473714e-02	7.0019483225987004e-03	5	1.1116689464825311e-01	7.5247007697656527e-03	6	false	smoothSolver	8.8431202664829862e-03	5.7711717837468507e-04	2	true	smoothSolver	1.5015656398380630e-03	6.7744178996607122e-05	2	true	GAMG	7.0584353372320621e-02	3.5378805808000831e-03	3	true
42                      	smoothSolver	7.6596360582959863e-02	6.9051173937778416e-03	5	1.0913429349620540e-01	7.4596163582015150e-03	6	false	smoothSolver	8.6010352816623895e-03	5.6602797711492476e-04	2	true	smoothSolver	1.4317352199838089e-03	6.9207584298271879e-05	2	true	GAMG	7.1368474065774803e-02	3.4599505317016912e-03	3	true
43                      	smoothSolver	7.4542712457994251e-02	6.7057435926731147e-03	5	1.0741195190635371e-01	7.4757270861766220e-03	6	false	smoothSolver	8.7526426320163418e-03	5.7977081073192546e-04	2	true	smoothSolver	1.4171379401688260e-03	6.9101353809515026e-05	2	true	GAMG	7.1688397033223120e-02	3.4619877310857021e-03	3	true
44                      	smoothSolver	7.1726087597757282e-02	6.4381542544232027e-03	5	1.0606720636825390e-01	7.5516987483745142e-03	6	false	smoothSolver	8.7337397348372526e-03	5.8339204603303325e-04	2	true	smoothSolver	1.4072349798685279e-03	6.4313955020384923e-05	2	true	GAMG	7.3358277627427998e-02	3.6134930598419302e-03	3	true
45                      	smoothSolver	6.9732934711212058e-02	6.1720009840651483e-03	5	1.0518443196759890e-01	7.6165115909886368e-03	6	false	smoothSolver	8.6261239658666170e-03	6.0265258970482454e-04	2	true	smoothSolver	1.3726467888213209e-03	6.2778012847702897e-05	2	true	GAMG	7.9824663922848219e-02	3.8890426416720090e-03	3	true
46                      	smoothSolver	6.8668794072305597e-02	5.9544871368835744e-03	5	1.0485884690250410e-01	7.6308510170795671e-03	6	false	smoothSolver	8.6430040165025208e-03	6.1715237270577579e-04	2	true	smoothSolver	1.3298168169864569e-03	6.3032082505117432e-05	2	true	GAMG	8.5008028203973074e-02	4.2333140669382286e-03	3	true
47                      	smoothSolver	6.7780134544587853e-02	5.6695539464139593e-03	5	1.0397326439689050e-01	7.5641949618131333e-03	6	false	smoothSolver	8.6773302806737469e-03	6.0294147719896812e-04	2	true	smoothSolver	1.2989669810945970e-03	6.2451745444114777e-05	2	true	GAMG	8.4148567136072619e-02	4.0539763374385250e-03	3	true
48                      	smoothSolver	6.5842066957976439e-02	5.3466183198456118e-03	5	1.0219204724879290e-01	7.4829794951579692e-03	6	false	smoothSolver	8.7039691108725861e-03	6.1700476470896129e-04	2	true	smoothSolver	1.2803218375321340e-03	6.0009044826092031e-05	2	true	GAMG	7.6148437537846642e-02	7.3556956919551527e-03	2	true
49                      	smoothSolver	6.3650972991648180e-02	5.0171487667046363e-03	5	1.0150175733690819e-01	7.3445360567979496e-03	6	false	smoothSolver	8.6265911325094022e-03	6.1540939705803134e-04	2	true	smoothSolver	1.2388189909260160e-03	6.0959313852465220e-05	2	true	GAMG	6.1421001669772497e-02	2.9060119953423832e-03	3	true
50                      	smoothSolver	6.1237985042367583e-02	4.7668243013473024e-03	5	1.0001403611639351e-01	7.1799719519429700e-03	6	false	smoothSolver	8.5181735805909421e-03	6.0508414674991949e-04	2	true	smoothSolver	1.2497084899228709e-03	6.1519793865193274e-05	2	true	GAMG	5.4189648579725871e-02	2.6141304854886880e-03	3	true
51                      	smoothSolver	5.8482390393800258e-02	4.5712200031418461e-03	5	9.6658645763239709e-02	6.9925082968580231e-03	6	false	smoothSolver	8.5748521536434096e-03	5.8866929916135584e-04	2	true	smoothSolver	1.2503219910844829e-03	6.3472170624497310e-05	2	true	GAMG	5.0665720807643318e-02	2.5124355064193591e-03	3	true
52                      	smoothSolver	5.5948679186851279e-02	4.4101083575466531e-03	5	9.2590953389137837e-02	6.8120422443400403e-03	6	false	smoothSolver	8.6014537596541714e-03	5.4670302462847152e-04	2	true	smoothSolver	1.2743569845654001e-03	5.9706301918300718e-05	2	true	GAMG	4.9085805460409110e-02	2.5064386467724322e-03	3	true
53                      	smoothSolver	5.3710227557262062e-02	4.2526320415155836e-03	5	8.8440444702580390e-02	6.5755384102297951e-03	6	false	smoothSolver	8.5720589071572630e-03	5.3244617217376028e-04	2	true	smoothSolver	1.2859006464967561e-03	5.8554076685169298e-05	2	true	GAMG	4.8340573038197290e-02	2.5978177647943842e-03	3	true
54                      	smoothSolver	5.1250733049813382e-02	4.1655416772133263e-03	5	8.4604591619399622e-02	6.3274745056795898e-03	6	false	smoothSolver	8.5486398010718480e-03	5.6078138584005868e-04	2	true	smoothSolver	1.3221156161485319e-03	6.4395448305905307e-05	2	true	GAMG	4.7561708086319418e-02	2.5859764732500531e-03	3	true
55                      	smoothSolver	4.8966406847069592e-02	4.1560550947625282e-03	5	8.0764091491078341e-02	6.0463734946074443e-03	6	false	smoothSolver	8.8361249852775131e-03	5.5262843369108911e-04	2	true	smoothSolver	1.3091850037124510e-03	6.3439597458742270e-05	2	true	GAMG	4.5920413022171161e-02	2.5344427783046998e-03	3	true
56                      	smoothSolver	4.6882862020739893e-02	4.1637333337474344e-03	5	7.6904941669698093e-02	5.7378400002917806e-03	6	false	smoothSolver	9.1531055995053724e-03	5.9229875372240860e-04	2	true	smoothSolver	1.2389374480852530e-03	6.0923627957026228e-05	2	true	GAMG	4.3619631558576101e-02	2.4649671448293579e-03	3	true
57                      	smoothSolver	4.4977362232901892e-02	4.1751549322649826e-03	5	7.2833787366558836e-02	5.4734148281248137e-03	6	false	smoothSolver	9.3833052193671353e-03	6.3080150804737008e-04	2	true	smoothSolver	1.1872018304497590e-03	5.7506961509544362e-05	2	true	GAMG	4.1844521508255669e-02	2.3963249973252779e-03	3	true
58                      	smoothSolver	4.3066529276022690e-02	4.2268888141237214e-03	5	6.8881324093549287e-02	5.2494769629341060e-03	6	false	smoothSolver	9.6003477410268462e-03	6.2797216691370538e-04	2	true	smoothSolver	1.1456791974234360e-03	5.8091178064563477e-05	2	true	GAMG	4.1889027295101217e-02	2.3532125557637960e-03	3	true
59                      	smoothSolver	4.1704266567917980e-02	2.9491817678178951e-03	6	6.5420647282078817e-02	5.0735149704633871e-03	6	false	smoothSolver	9.8387118744048940e-03	6.3989085534621318e-04	2	true	smoothSolver	1.0934976017365060e-03	5.0105656955077302e-05	2	true	GAMG	4.1244290480230511e-02	2.2947470740824422e-03	3	true
60                      	smoothSolver	4.0711504159284012e-02	3.0012732602721069e-03	6	6.3294008760771611e-02	5.0450987132412200e-03	6	false	smoothSolver	1.0303365324155630e-02	6.3480353671336231e-04	2	true	smoothSolver	1.0392193646810771e-03	4.5697978713519591e-05	2	true	GAMG	4.0645169059927461e-02	2.3145713510333162e-03	3	true
61                      	smoothSolver	4.0308973467266189e-02	3.0577411908851481e-03	6	6.2819236227958722e-02	5.1626833529196349e-03	6	false	smoothSolver	1.0931519400605541e-02	6.8920458505830325e-04	2	true	smoothSolver	9.8310551329148458e-04	4.3930492303666387e-05	2	true	GAMG	4.0217056810466958e-02	2.4334368064479590e-03	3	true
62                      	smoothSolver	4.0451401391543053e-02	3.1210422842860731e-03	6	6.3529858681062271e-02	5.3337086260137334e-03	6	false	smoothSolver	1.1583552516714351e-02	7.3669613489227650e-04	2	true	smoothSolver	9.4544210861557314e-04	4.6262982264372249e-05	2	true	GAMG	4.0908277794890348e-02	2.6405673143468080e-03	3	true
63                      	smoothSolver	4.1336505762192319e-02	3.2287610333330669e-03	6	6.4677258707988766e-02	5.5166377549450097e-03	6	false	smoothSolver	1.2211774011931419e-02	8.4333539040808451e-04	2	true	smoothSolver	1.2467452443798810e-03	4.4929600769956382e-05	2	true	GAMG	4.2439896366087720e-02	2.9072681391239400e-03	3	true
64                      	smoothSolver	4.2640036339766679e-02	3.3790678889001500e-03	6	6.5418652137791508e-02	5.7089736999885602e-03	6	false	smoothSolver	1.2798887480856710e-02	9.0438051195751456e-04	2	true	smoothSolver	8.8319761660541674e-04	4.4823536423176787e-05	2	true	GAMG	4.4969941727704271e-02	3.1422623167713750e-03	3	true
65                      	smoothSolver	4.4509928973046203e-02	3.5410252915815182e-03	6	6.6459451071159012e-02	5.8637166415699254e-03	6	false	smoothSolver	1.3299242971661110e-02	9.7996456881613292e-04	2	true	smoothSolver	8.5103865228093785e-04	4.3595438213616827e-05	2	true	GAMG	4.7766080731800407e-02	3.2461893091921571e-03	3	true
66                      	smoothSolver	4.6670235479261600e-02	3.7333197569342689e-03	6	6.8691585769380947e-02	6.1131112824468281e-03	6	false	smoothSolver	1.3404992512642360e-02	9.9034083319585057e-04	2	true	smoothSolver	8.1825132423098124e-04	3.9845787027972492e-05	2	true	GAMG	5.1584642370169867e-02	3.3123305739460539e-03	3	true
67                      	smoothSolver	4.9543959761299758e-02	3.9604932084700796e-03	6	7.1629806808583579e-02	6.4082088292572014e-03	6	false	smoothSolver	1.3258042765758040e-02	9.4328199784711084e-04	2	true	smoothSolver	7.6938016477420379e-04	3.9928886270281612e-05	2	true	GAMG	5.5687407251173882e-02	3.4176929517637390e-03	3	true
68                      	smoothSolver	5.2068253230039961e-02	4.2016795552971631e-03	6	7.4631838739450326e-02	6.7594708816784196e-03	6	false	smoothSolver	1.3196109327605799e-02	9.3813903638069321e-04	2	true	smoothSolver	7.3099466710602808e-04	3.9213645418139342e-05	2	true	GAMG	5.9679206898473933e-02	3.5066458558759540e-03	3	true
69                      	smoothSolver	5.4855985668002608e-02	4.4501413063767307e-03	6	7.8374308567078499e-02	7.1664332104009864e-03	6	false	smoothSolver	1.2978505353953460e-02	9.3522584253100376e-04	2	true	smoothSolver	6.9071891934118662e-04	3.9932356007451522e-05	2	true	GAMG	6.3735894642703489e-02	3.6348910070184239e-03	3	true
70                      	smoothSolver	5.7138939541413379e-02	4.6668782947303289e-03	6	8.2733376992762189e-02	7.5861975532695919e-03	6	false	smoothSolver	1.2574095797700300e-02	9.0531936859592843e-04	2	true	smoothSolver	6.5181139143517970e-04	3.6120666010695968e-05	2	true	GAMG	6.8670918716165652e-02	3.9268958525997448e-03	3	true
71                      	smoothSolver	5.9213300742474537e-02	4.8147933006054194e-03	6	8.7594886813717465e-02	7.9714264971814334e-03	6	false	smoothSolver	1.1926902486265920e-02	8.4216497420177368e-04	2	true	smoothSolver	6.1698050303627457e-04	3.4650282470299052e-05	2	true	GAMG	7.4610744160082329e-02	4.5013064514076032e-03	3	true
72                      	smoothSolver	5.9989521182874588e-02	4.8368346615466282e-03	6	9.2707491172725087e-02	8.2610594592918765e-03	6	false	smoothSolver	1.1337771768935049e-02	8.3124786373183488e-04	2	true	smoothSolver	5.8215328916736634e-04	3.2974189021438563e-05	2	true	GAMG	7.9621236214270752e-02	4.9892202706933366e-03	3	true
73                      	smoothSolver	5.9938472761227060e-02	4.6898812100727187e-03	6	9.8618669978115442e-02	8.4698779666807986e-03	6	false	smoothSolver	1.0748608891951599e-02	8.3009873111462254e-04	2	true	smoothSolver	5.4331250877306947e-04	3.0250066977593421e-05	2	true	GAMG	8.3277276894862501e-02	5.1785324789215296e-03	3	true
74                      	smoothSolver	5.8196692152139518e-02	4.3422847463985299e-03	6	1.0370671455847870e-01	8.5496844191283936e-03	6	false	smoothSolver	1.0208094710169820e-02	7.8094368642670333e-04	2	true	smoothSolver	4.9988527068068613e-04	2.7983816259485140e-05	2	true	GAMG	8.6452353793360234e-02	5.2963720475416119e-03	3	true
75                      	smoothSolver	5.5144364213219291e-02	3.9019587728316351e-03	6	1.0821793174598730e-01	8.6891905369708457e-03	6	false	smoothSolver	9.7844207671395744e-03	7.7403995934568169e-04	2	true	smoothSolver	4.6601426089939269e-04	2.6672692715618121e-05	2	true	GAMG	9.2233795369928498e-02	5.4601594267486954e-03	3	true
76                      	smoothSolver	5.2225293176088157e-02	3.6266955918865299e-03	6	1.1014116977474150e-01	8.8569971726934760e-03	6	false	smoothSolver	9.5747059684058583e-03	7.5733877647102190e-04	2	true	smoothSolver	4.4567013995371231e-04	2.5377716973364360e-05	2	true	GAMG	9.5279010875206002e-02	5.5890160097186352e-03	3	true
77                      	smoothSolver	4.9908098319431202e-02	3.5318238805560620e-03	6	1.1022651760934619e-01	8.9460829053412041e-03	6	false	smoothSolver	9.4752781069377904e-03	7.4997725443362616e-04	2	true	smoothSolver	4.2720156365859662e-04	2.4174693936904408e-05	2	true	GAMG	9.3761443214761084e-02	5.3773643489837299e-03	3	true
78                      	smoothSolver	4.8805321150187521e-02	3.4935103768723589e-03	6	1.0972273997153890e-01	8.7730746505244959e-03	6	false	smoothSolver	9.4174028418181708e-03	7.4834753645307013e-04	2	true	smoothSolver	4.1338223571915368e-04	2.3337496225673749e-05	2	true	GAMG	8.8888753574297263e-02	5.3232499062487830e-03	3	true
79                      	smoothSolver	4.8224313142449467e-02	3.4489537929455350e-03	6	1.0823152355048821e-01	8.4334853993123307e-03	6	false	smoothSolver	9.3306354540973382e-03	7.0941930842651315e-04	2	true	smoothSolver	3.9250406064695719e-04	2.2543045872404780e-05	2	true	GAMG	8.5301616081331355e-02	5.5167325612206679e-03	3	true
80                      	smoothSolver	4.8616142117170622e-02	3.4366327662495358e-03	6	1.0596223649473389e-01	8.0521431878794337e-03	6	false	smoothSolver	9.2398416731451216e-03	6.9048153039068976e-04	2	true	smoothSolver	3.7549443914863101e-04	2.1803314149781151e-05	2	true	GAMG	8.3091954021381420e-02	6.0764122600679626e-03	3	true
81                      	smoothSolver	4.9456353979379211e-02	3.4763933235221031e-03	6	1.0286353403416260e-01	7.8540946420743059e-03	6	false	smoothSolver	9.1276038895654645e-03	6.6281984576661553e-04	2	true	smoothSolver	3.5878761649710131e-04	2.0622597603930659e-05	2	true	GAMG	8.3178474431767069e-02	6.4259891627948601e-03	3	true
82                      	smoothSolver	5.0157451299546733e-02	3.5771468293166590e-03	6	9.9249330415048256e-02	7.7973049905090512e-03	6	false	smoothSolver	9.0690785670568142e-03	6.9393307867973339e-04	2	true	smoothSolver	3.4859322023113358e-04	2.0672150100303519e-05	2	true	GAMG	8.1851844101662075e-02	6.3338636994709711e-03	3	true
83                      	smoothSolver	5.0066784909090743e-02	3.6812720592140922e-03	6	9.5790394313634772e-02	7.7787783324028154e-03	6	false	smoothSolver	9.0553435305971985e-03	6.7607993637756295e-04	2	true	smoothSolver	3.4284397451746722e-04	2.0627950871829179e-05	2	true	GAMG	8.1612008870500324e-02	6.2603218005795637e-03	3	true
84                      	smoothSolver	4.9717127103804368e-02	3.7712061980010271e-03	6	9.2381625162839043e-02	7.7779471561993220e-03	6	false	smoothSolver	9.1184694135570624e-03	6.9373162229297838e-04	2	true	smoothSolver	3.3821230597931681e-04	2.0368373577626691e-05	2	true	GAMG	8.3801682332574873e-02	6.0667123328697753e-03	3	true
85                      	smoothSolver	4.9777570760631787e-02	3.8801516832897248e-03	6	8.9182401350337365e-02	7.7771311403264497e-03	6	false	smoothSolver	9.1845256611510218e-03	6.8386081012580444e-04	2	true	smoothSolver	3.3794542067660361e-04	1.9163180977248202e-05	2	true	GAMG	8.5621611685066240e-02	5.9311128751298138e-03	3	true
86                      	smoothSolver	5.0473334429962560e-02	4.0067379460877626e-03	6	8.6228211400532634e-02	7.7426674312745317e-03	6	false	smoothSolver	9.2604102889267802e-03	7.1012988541444282e-04	2	true	smoothSolver	3.3543099471540901e-04	1.9379434436258349e-05	2	true	GAMG	8.7391400506516614e-02	6.0567719817810886e-03	3	true
87                      	smoothSolver	5.1199530513236648e-02	4.1163940357109036e-03	6	8.3508068451789944e-02	7.6847420746733444e-03	6	false	smoothSolver	9.3088319506940131e-03	7.2617013612169567e-04	2	true	smoothSolver	3.3046505792324601e-04	1.8696294850473418e-05	2	true	GAMG	8.8252445215246486e-02	6.2468574154542003e-03	3	true
88                      	smoothSolver	5.1706026107287639e-02	4.1814309486327174e-03	6	8.0694221226204774e-02	7.5882182795096124e-03	6	false	smoothSolver	9.2998096865724075e-03	7.1190094965252416e-04	2	true	smoothSolver	3.2591203461625488e-04	1.8131513511153080e-05	2	true	GAMG	8.8519072421206754e-02	5.9442714298140967e-03	3	true
89                      	smoothSolver	5.1676340428272058e-02	4.2011975495627931e-03	6	7.7872816679719237e-02	7.4490766107448564e-03	6	false	smoothSolver	9.2775853448496814e-03	7.1323047865898791e-04	2	true	smoothSolver	3.2336394313403621e-04	1.7609623654406340e-05	2	true	GAMG	8.6117311675179137e-02	6.0560342252791496e-03	3	true