# Force and moment coefficients
# dragDir               : (1.0000000000000000e+00 0.0000000000000000e+00 0.0000000000000000e+00)
# sideDir               : (0.0000000000000000e+00 1.0000000000000000e+00 0.0000000000000000e+00)
# liftDir               : (0.0000000000000000e+00 0.0000000000000000e+00 1.0000000000000000e+00)
# rollAxis              : (1.0000000000000000e+00 0.0000000000000000e+00 0.0000000000000000e+00)
# pitchAxis             : (0.0000000000000000e+00 1.0000000000000000e+00 0.0000000000000000e+00)
# yawAxis               : (0.0000000000000000e+00 0.0000000000000000e+00 1.0000000000000000e+00)
# magUInf               : 1.6000000000000000e+01
# lRef                  : 1.5300000000000000e+00
# Aref                  : 1.0000000000000000e+00
# CofR                  : (0.0000000000000000e+00 7.6500000000000001e-01 0.0000000000000000e+00)
#
# Time                  	Cd                      	Cd(f)                   	Cd(r)                   	Cl                      	Cl(f)                   	Cl(r)                   	CmPitch                 	CmRoll                  	CmYaw                   	Cs                      	Cs(f)                   	Cs(r)                   
1                       	4.8582497225232568e-01	4.8376424582254673e-01	2.0607264297789162e-03	-4.6645973713350236e-01	5.9602027098727117e-01	-1.0624800081207735e+00	8.2925013955402238e-01	2.4085175969638392e-01	2.5085080266623372e-01	-2.4709730364466969e-20	2.5085080266623372e-01	-2.5085080266623372e-01
2                       	1.1133496303025102e-01	1.6573129119436822e-01	-5.4396328164117193e-02	-2.1316155545473645e-01	1.9348016715926189e-01	-4.0664172261399834e-01	3.0006094488663015e-01	1.1006380967924270e-01	5.7486680257449831e-02	-8.5747388953179318e-21	5.7486680257449831e-02	-5.7486680257449831e-02
3                       	-7.4640675549348348e-02	-3.2734043190530852e-02	-4.1906632358817503e-02	-8.8823173591636925e-03	-4.4024644286671050e-02	3.5142326927507357e-02	-3.9583485607089207e-02	4.5862945841433200e-03	-3.8539956656199387e-02	5.3628065990631141e-21	-3.8539956656199387e-02	3.8539956656199387e-02
4                       	-5.9416485126215168e-02	-1.9743145612629069e-02	-3.9673339513586099e-02	-1.9299491562319176e-02	-2.7174359293268713e-02	7.8748677309495394e-03	-1.7524613512109127e-02	9.9650969504785150e-03	-3.0679100163209121e-02	2.6624824267004956e-21	-3.0679100163209121e-02	3.0679100163209121e-02
5                       	-2.7398156889978563e-02	-1.0606208087722639e-02	-1.6791948802255926e-02	-5.9899894260987199e-03	-1.6767040557598131e-02	1.0777051131499413e-02	-1.3772045844548773e-02	3.0928703572666427e-03	-1.4146760747113098e-02	-1.9268640196888509e-21	-1.4146760747113098e-02	1.4146760747113098e-02
6                       	-7.2716719885475255e-03	-1.2101625261528089e-02	4.8299532729805640e-03	1.6395769087214043e-02	-1.9076725148258290e-02	3.5472494235472329e-02	-2.7274609691865313e-02	-8.4657892672543276e-03	-3.7546541640212719e-03	-5.4896764587698372e-21	-3.7546541640212719e-03	3.7546541640212719e-03
7                       	2.6055905315764661e-03	-9.8706799553513261e-03	1.2476270486927793e-02	2.1639768466257574e-02	-1.6753407745388180e-02	3.8393176211645751e-02	-2.7573291978516965e-02	-1.1173475221139560e-02	1.3453702744741238e-03	-7.1011220011616928e-21	1.3453702744741238e-03	-1.3453702744741238e-03
8                       	5.5460285457615815e-03	-4.0873767674476967e-03	9.6334053132092774e-03	1.3286580116079236e-02	-1.0182190030827872e-02	2.3468770146907111e-02	-1.6825480088867494e-02	-6.8603910403284875e-03	2.8636356543474853e-03	-7.1962649368090562e-21	2.8636356543474853e-03	-2.8636356543474853e-03
9                       	4.7173300140700078e-03	5.2729061102358326e-03	-5.5557609616582455e-04	-5.6440365669585347e-03	9.0806328717053678e-04	-6.5520998541290718e-03	3.7300815706498040e-03	2.9142411032008287e-03	2.4357455628204643e-03	-7.0470545763272696e-21	2.4357455628204643e-03	-2.4357455628204643e-03
10                      	2.3959511722183467e-03	1.3830372282363430e-02	-1.1434421110145084e-02	-2.4465274614264565e-02	1.1397439449413876e-02	-3.5862714063678441e-02	2.3630076756546159e-02	1.2632396696254256e-02	1.2371251150669880e-03	-6.0170515214196800e-21	1.2371251150669880e-03	-1.2371251150669880e-03
11                      	3.2147687621507989e-04	1.8743813961645494e-02	-1.8422337085430413e-02	-3.5990007026598728e-02	1.7586706185861601e-02	-5.3576713212460332e-02	3.5581709699160968e-02	1.8583075523537954e-02	1.6599132824177221e-04	-5.1502912256834003e-21	1.6599132824177221e-04	-1.6599132824177221e-04
12                      	-3.9481487130688282e-04	2.0178949193620017e-02	-2.0573764064926902e-02	-3.9463070433909272e-02	1.9871815129582238e-02	-5.9334885563491507e-02	3.9603350346536871e-02	2.0376356629273458e-02	-2.0385865904081049e-04	-4.3090799093618050e-21	-2.0385865904081049e-04	2.0385865904081049e-04
13                      	-6.9640941446433139e-04	2.1472334032833530e-02	-2.2168743447297863e-02	-4.2260030724431068e-02	2.2002651823706421e-02	-6.4262682548137495e-02	4.3132667185921958e-02	2.1820538740065697e-02	-3.5958394603060456e-04	-3.4947046923166833e-21	-3.5958394603060456e-04	3.5958394603060456e-04
14                      	-3.6482237273279938e-04	2.5513049837790763e-02	-2.5877872210523564e-02	-4.9764627046785331e-02	2.7284647391539959e-02	-7.7049274438325294e-02	5.2166960914932628e-02	2.5695461024157162e-02	-1.8837233624765371e-04	-2.5382306746440779e-21	-1.8837233624765371e-04	1.8837233624765371e-04
15                      	5.0543978634275024e-04	2.8918310980966064e-02	-2.8412871194623317e-02	-5.5516904258640302e-02	3.1643040516790101e-02	-8.7159944775430404e-02	5.9401492646110256e-02	2.8665591087794689e-02	2.6097871320965641e-04	-1.5394901377613994e-21	2.6097871320965641e-04	-2.6097871320965641e-04
16                      	2.4299751827657852e-03	3.1999812173401275e-02	-2.9569836990635489e-02	-5.9621242544921675e-02	3.5401251417476007e-02	-9.5022493962397675e-02	6.5211872689936834e-02	3.0784824582018384e-02	1.2546930682254696e-03	-9.7907769379446310e-22	1.2546930682254696e-03	-1.2546930682254696e-03
17                      	5.3658816640968160e-03	3.6622372702425687e-02	-3.1256491038328872e-02	-6.5730798432502707e-02	4.0871353808122644e-02	-1.0660215224062534e-01	7.3736753024373991e-02	3.3939431870377276e-02	2.7706186370173077e-03	-4.0284016107216805e-22	2.7706186370173077e-03	-2.7706186370173077e-03
18                      	7.2001880462364094e-03	4.1317456199140103e-02	-3.4117268152903689e-02	-7.3047549530776551e-02	4.6514156968072970e-02	-1.1956170649884952e-01	8.3037931733461245e-02	3.7717362176021896e-02	3.7177441545926488e-03	6.0672742750110254e-22	3.7177441545926488e-03	-3.7177441545926488e-03
19                      	8.9525614311193255e-03	4.7964820005537728e-02	-3.9012258574418403e-02	-8.4224639384387803e-02	5.4295156309134354e-02	-1.3851979569352216e-01	9.6407476001328249e-02	4.3488539289978069e-02	4.6225643990746830e-03	1.4976212630209690e-21	4.6225643990746830e-03	-4.6225643990746830e-03
20                      	8.9425818609675124e-03	5.0757612293353488e-02	-4.1815030432385970e-02	-8.9643128715431314e-02	5.7412126271660618e-02	-1.4705525498709193e-01	1.0223369062937628e-01	4.6286321362869726e-02	4.6174115491270122e-03	2.1770094969851133e-21	4.6174115491270122e-03	-4.6174115491270122e-03
21                      	8.6189173917953343e-03	5.4766524766213132e-02	-4.6147607374417803e-02	-9.7720646946307096e-02	6.1721939005625656e-02	-1.5944258595193275e-01	1.1058226247877921e-01	5.0457066070315464e-02	4.4502906794237325e-03	2.9135106968038739e-21	4.4502906794237325e-03	-4.4502906794237325e-03
22                      	7.2393865680142914e-03	5.8888276100052088e-02	-5.1648889532037799e-02	-1.0703915406145421e-01	6.6165870538341665e-02	-1.7320502459979589e-01	1.1968544756906876e-01	5.5268582816044944e-02	3.7379839142034584e-03	3.1714745910102358e-21	3.7379839142034584e-03	-3.7379839142034584e-03
23                      	6.3344500001424721e-03	6.5881716381743685e-02	-5.9547266381601210e-02	-1.2145971115691002e-01	7.3740343761184005e-02	-1.9520005491809403e-01	1.3447019933963902e-01	6.2714491381672455e-02	3.2707290850408828e-03	3.1793574527266542e-21	3.2707290850408828e-03	-3.2707290850408828e-03
24                      	5.6429058257633164e-03	7.3062754042977546e-02	-6.7419848217214237e-02	-1.3603695028993262e-01	8.1513395231502361e-02	-2.1755034552143496e-01	1.4953187037646867e-01	7.0241301130095884e-02	2.9136572564398716e-03	2.5015769038098799e-21	2.9136572564398716e-03	-2.9136572564398716e-03
25                      	4.4373870822604026e-03	7.9107311622546722e-02	-7.4669924540286314e-02	-1.4891086792983182e-01	8.7884122941772669e-02	-2.3679499087160449e-01	1.6233955690668858e-01	7.6888618081416518e-02	2.2911998660037308e-03	1.3566538467644491e-21	2.2911998660037308e-03	-2.2911998660037308e-03
26                      	8.9601835767242797e-04	8.4576102482653209e-02	-8.3680084124980764e-02	-1.6293162374030351e-01	9.3617902853685639e-02	-2.5654952659398916e-01	1.7508371472383738e-01	8.4128093303816986e-02	4.6265000167399704e-04	8.7738794621065254e-22	4.6265000167399704e-04	-4.6265000167399704e-04
27                      	-4.9078387807993977e-03	9.0361398207791807e-02	-9.5269236988591202e-02	-1.7975624800662426e-01	9.9532909644660716e-02	-2.7928915765128498e-01	1.8941103364797285e-01	9.2815317598191505e-02	-2.5341128345304112e-03	7.2093171218962920e-22	-2.5341128345304112e-03	2.5341128345304112e-03
28                      	-1.2468637348470903e-02	9.6039220202728495e-02	-1.0850785755119942e-01	-1.9807406896424659e-01	1.0523810236387600e-01	-3.0331217132812255e-01	2.0427513684599929e-01	1.0227353887696396e-01	-6.4380545786222338e-03	8.0455222662237926e-22	-6.4380545786222338e-03	6.4380545786222338e-03
29                      	-2.1006447741841971e-02	1.0269210163516586e-01	-1.2369854937700782e-01	-2.1922638990419333e-01	1.1197557015855863e-01	-3.3120196006275193e-01	2.2158876511065528e-01	1.1319532550608684e-01	-1.0846466481081811e-02	9.3470481633392649e-22	-1.0846466481081811e-02	1.0846466481081811e-02
30                      	-2.9253997314697338e-02	1.0695416371030006e-01	-1.3620816102499739e-01	-2.3546731445886368e-01	1.1615740115659579e-01	-3.5162471561545944e-01	2.3389105838602761e-01	1.2158116236764872e-01	-1.5105005149418904e-02	1.7733565370603320e-21	-1.5105005149418904e-02	1.5105005149418904e-02
31                      	-3.4627443988795026e-02	1.0512504895831612e-01	-1.3975249294711115e-01	-2.3712825260462272e-01	1.1380890383270180e-01	-3.5093715643732454e-01	2.3237303013501315e-01	1.2243877095271362e-01	-1.7879529902711157e-02	2.8268865757009209e-21	-1.7879529902711157e-02	1.7879529902711157e-02
32                      	-3.7093259601201869e-02	1.0214318280732591e-01	-1.3923644240852781e-01	-2.3374102948117448e-01	1.1035056302575780e-01	-3.4409159250693222e-01	2.2722107776634504e-01	1.2068981260792686e-01	-1.9152728813692451e-02	3.0898427801058654e-21	-1.9152728813692451e-02	1.9152728813692451e-02
33                      	-3.7572330548314846e-02	9.6596556943007575e-02	-1.3416888749132244e-01	-2.2346274049653508e-01	1.0411387443347089e-01	-3.2757661493000600e-01	2.1584524468173844e-01	1.1538272221716500e-01	-1.9400092243901112e-02	2.9354985003516505e-21	-1.9400092243901112e-02	1.9400092243901112e-02
34                      	-3.5289709720753897e-02	9.1918257730725136e-02	-1.2720796745147905e-01	-2.1219185096757776e-01	9.9042892843288738e-02	-3.1123474381086652e-01	2.0513881832707762e-01	1.0956311259110209e-01	-1.8221484104180119e-02	2.6657517161812505e-21	-1.8221484104180119e-02	1.8221484104180119e-02
35                      	-3.0854301205710088e-02	8.8872355905429093e-02	-1.1972665711113917e-01	-2.0199777842743624e-01	9.5975173743477818e-02	-2.9797295217091407e-01	1.9697406295719594e-01	1.0429950650828414e-01	-1.5931305851314328e-02	2.4817314403477829e-21	-1.5931305851314328e-02	1.5931305851314328e-02
36                      	-2.5250776939153358e-02	8.7388377183445082e-02	-1.1263915412259845e-01	-1.9369754613813076e-01	9.4777735848333738e-02	-2.8847528198646449e-01	1.9162650891739910e-01	1.0001376565302177e-01	-1.3037982864007284e-02	2.2074542461185319e-21	-1.3037982864007284e-02	1.3037982864007284e-02
37                      	-1.9123663707503621e-02	8.6030404514969405e-02	-1.0515406822247303e-01	-1.8513433119511818e-01	9.3839795437593188e-02	-2.7897412663271137e-01	1.8640696103515228e-01	9.5592236368721217e-02	-9.8743100189071023e-03	1.7355518643301944e-21	-9.8743100189071023e-03	9.8743100189071023e-03
38                      	-1.2928543740737220e-02	8.3883169381481201e-02	-9.6811713122218424e-02	-1.7497669001940536e-01	9.2113183346399966e-02	-2.6708987336580531e-01	1.7960152835610263e-01	9.0347441251849819e-02	-6.6755225850865432e-03	1.2744706129423369e-21	-6.6755225850865432e-03	6.6755225850865432e-03
39                      	-6.6938125560020529e-03	8.1454357295726587e-02	-8.8148169851728631e-02	-1.6423535856683924e-01	9.0194815136169004e-02	-2.5443017370300824e-01	1.7231249441958862e-01	8.4801263573727609e-02	-3.4562823001579247e-03	5.9235814830273507e-22	-3.4562823001579247e-03	3.4562823001579247e-03
40                      	-6.9915203578648226e-04	7.9256385041862359e-02	-7.9955537077648839e-02	-1.5417357015370400e-01	8.8662649211495956e-02	-2.4283621936519995e-01	1.6574943428834796e-01	7.9605961059755606e-02	-3.6100007076557297e-04	-5.0807354447127598e-23	-3.6100007076557297e-04	3.6100007076557297e-04
41                      	4.8877361786517073e-03	7.7767249932192556e-02	-7.2879513753540862e-02	-1.4587946103745050e-01	8.7977213308065627e-02	-2.3385667434551613e-01	1.6091694382679089e-01	7.5323381842866702e-02	2.5237330595652674e-03	-9.4584221054549012e-22	2.5237330595652674e-03	-2.5237330595652674e-03
42                      	9.9757950563189018e-03	7.7122293408617301e-02	-6.7146498352298398e-02	-1.3970332366721580e-01	8.8180928627973887e-02	-2.2788425229518966e-01	1.5803259046158177e-01	7.2134395880457849e-02	5.1509007153542150e-03	-1.7597181942656939e-21	5.1509007153542150e-03	-5.1509007153542150e-03
43                      	1.5384177345076225e-02	7.7522145406218296e-02	-6.2137968061142065e-02	-1.3524048962345675e-01	8.9471106421092794e-02	-2.2471159604454957e-01	1.5709135123282117e-01	6.9830056733680174e-02	7.9434641193530751e-03	-2.6895268802243784e-21	7.9434641193530751e-03	-7.9434641193530751e-03
44                      	2.1305966322954069e-02	7.8937074399320073e-02	-5.7631108076366004e-02	-1.3224640454924039e-01	9.1833644645563345e-02	-2.2408004919480373e-01	1.5795684692018352e-01	6.8284091237843042e-02	1.1001119866100476e-02	-3.6452088866054508e-21	1.1001119866100476e-02	-1.1001119866100476e-02
45                      	2.7407624510662490e-02	8.0985515802145275e-02	-5.3577891291482792e-02	-1.3030507142610823e-01	9.4811022700544881e-02	-2.2511609412665312e-01	1.5996355841359899e-01	6.7281703546814037e-02	1.4151649257139447e-02	-4.4497813393070494e-21	1.4151649257139447e-02	-1.4151649257139447e-02
46                      	3.3378504805740457e-02	8.3360154575251186e-02	-4.9981649769510736e-02	-1.2912212699207981e-01	9.8061207844644338e-02	-2.2718333483672415e-01	1.6262227134068424e-01	6.6670902172380961e-02	1.7234652808192780e-02	-4.9979736906726916e-21	1.7234652808192780e-02	-1.7234652808192780e-02
47                      	3.9211654703290855e-02	8.6165078595360323e-02	-4.6953423892069461e-02	-1.2890589164921967e-01	1.0175285973157552e-01	-2.3065875138079520e-01	1.6620580555618536e-01	6.6559251243714895e-02	2.0246540663790710e-02	-5.5967433330949965e-21	2.0246540663790710e-02	-2.0246540663790710e-02
48                      	4.4369436756895066e-02	8.8761572434928715e-02	-4.4392135678033642e-02	-1.2893998317267877e-01	1.0512036949328142e-01	-2.3406035266596018e-01	1.6959036107962080e-01	6.6576854056481172e-02	2.2909709175128794e-02	-6.0531581430401502e-21	2.2909709175128794e-02	-2.2909709175128794e-02
49                      	4.8851954378253334e-02	9.1110839847977465e-02	-4.2258885469724124e-02	-1.2914916438992624e-01	1.0815036716220729e-01	-2.3729953155213354e-01	1.7272494935717042e-01	6.6684862658850791e-02	2.5224211737790936e-02	-6.2984997238801065e-21	2.5224211737790936e-02	-2.5224211737790936e-02
50                      	5.2440189429024529e-02	9.3137802097857048e-02	-4.0697612668832532e-02	-1.2960011683103484e-01	1.1075964837806575e-01	-2.4035976520910060e-01	1.7555970679358318e-01	6.6917707383344793e-02	2.7076960554855808e-02	-6.6839638387582844e-21	2.7076960554855808e-02	-2.7076960554855808e-02
51                      	5.5517878551115667e-02	9.5138245061514082e-02	-3.9620366510398415e-02	-1.3049409854748500e-01	1.1334959093186568e-01	-2.4384368947935070e-01	1.7859664020560817e-01	6.7379305785956245e-02	2.8666094153843979e-02	-7.0803721261857064e-21	2.8666094153843979e-02	-2.8666094153843979e-02
52                      	5.8054089595581955e-02	9.6754654954600658e-02	-3.8700565359018710e-02	-1.3116866270875804e-01	1.1545328591658065e-01	-2.4662194862533868e-01	1.8103761727095966e-01	6.7727610156809684e-02	2.9975641033012951e-02	-6.6383671624450644e-21	2.9975641033012951e-02	-2.9975641033012951e-02
53                      	5.8486509670687283e-02	9.5729745953953518e-02	-3.7243236283266236e-02	-1.2876497647021928e-01	1.1428774872433854e-01	-2.4305272519455781e-01	1.7867023695944817e-01	6.6486491118609881e-02	3.0198916758067278e-02	-7.0507146017195163e-21	3.0198916758067278e-02	-3.0198916758067278e-02
54                      	5.6540168530506821e-02	9.1775755303184811e-02	-3.5235586772677990e-02	-1.2299199580763924e-01	1.0947016008837079e-01	-2.3246215589601005e-01	1.7096615799219042e-01	6.3505671037931394e-02	2.9193943228170226e-02	-6.5610615211306324e-21	2.9193943228170226e-02	-2.9193943228170226e-02
55                      	5.2858948504692208e-02	8.5965597479944644e-02	-3.3106648975252430e-02	-1.1530413739015900e-01	1.0230507166402485e-01	-2.1760920905418385e-01	1.5995714035910436e-01	5.9536123227598534e-02	2.7293182561246309e-02	-5.9185557794206385e-21	2.7293182561246309e-02	-2.7293182561246309e-02
56                      	4.8730552134292768e-02	8.0174870457864714e-02	-3.1444318323571946e-02	-1.0808693597189740e-01	9.5131255920386987e-02	-2.0321819189228441e-01	1.4917472390633568e-01	5.5809594390718337e-02	2.5161526919013900e-02	-5.6487607981096381e-21	2.5161526919013900e-02	-2.5161526919013900e-02
57                      	4.4413251662250790e-02	7.5105861833736173e-02	-3.0692610171485380e-02	-1.0245041909366374e-01	8.8799985275575671e-02	-1.9125040436923940e-01	1.4002519482240755e-01	5.2899236002610775e-02	2.2932332557632766e-02	-5.1946236206500966e-21	2.2932332557632766e-02	-2.2932332557632766e-02
58                      	3.9589375884281672e-02	7.0520319192924050e-02	-3.0930943308642378e-02	-9.8240779511010526e-02	8.2975542657517568e-02	-1.8121632216852809e-01	1.3209593241302284e-01	5.0725631250783214e-02	2.0441573169008145e-02	-4.7516968190593855e-21	2.0441573169008145e-02	-2.0441573169008145e-02
59                      	3.4848501021622395e-02	6.6949590031984377e-02	-3.2101089010361974e-02	-9.5916163882778516e-02	7.8336680430652408e-02	-1.7425284431343091e-01	1.2629476237204165e-01	4.9525339521173176e-02	1.7993670462144871e-02	-4.3578206941275762e-21	1.7993670462144871e-02	-1.7993670462144871e-02
60                      	2.9778469547844334e-02	6.3561727417785444e-02	-3.3783257869941116e-02	-9.4264447778621432e-02	7.3869617126110981e-02	-1.6813406490473240e-01	1.2100184101542169e-01	4.8672492643863280e-02	1.5375811073723562e-02	-3.8737734145714842e-21	1.5375811073723562e-02	-1.5375811073723562e-02
61                      	2.4422585361657718e-02	6.0005615451309037e-02	-3.5583030089651316e-02	-9.2563688403588279e-02	6.9181576500210826e-02	-1.6174526490379912e-01	1.1546342070200497e-01	4.7794322770480180e-02	1.2610354533143532e-02	-3.1960911687054257e-21	1.2610354533143532e-02	-1.2610354533143532e-02
62                      	1.9199263880842622e-02	5.6595586664795326e-02	-3.7396322783952704e-02	-9.1017481934547256e-02	6.4679759669937484e-02	-1.5569724160448475e-01	1.1018850063721111e-01	4.6995954724374012e-02	9.9133454025265681e-03	-2.5543371394465148e-21	9.9133454025265681e-03	-9.9133454025265681e-03
63                      	1.5048324272436525e-02	5.4582122846659767e-02	-3.9533798574223240e-02	-9.1137569477184141e-02	6.1878860585208161e-02	-1.5301643006239229e-01	1.0744764532380023e-01	4.7057960710441507e-02	7.7700497877286751e-03	-1.9948423621693493e-21	7.7700497877286751e-03	-7.7700497877286751e-03
64                      	1.2443786182298244e-02	5.4716592719130736e-02	-4.2272806536832498e-02	-9.3920114469382268e-02	6.1675068023280440e-02	-1.5559518249266271e-01	1.0863512525797157e-01	4.8494699627981613e-02	6.4252229307291521e-03	-1.5481353885308870e-21	6.4252229307291521e-03	-6.4252229307291521e-03
65                      	1.0702321417908734e-02	5.5828960505824379e-02	-4.5126639087915657e-02	-9.7760802138242203e-02	6.2661712914045486e-02	-1.6042251505228769e-01	1.1154211398316657e-01	5.0477799796870018e-02	5.5260352419267359e-03	-1.1660556671880437e-21	5.5260352419267359e-03	-5.5260352419267359e-03
66                      	9.0881129090513921e-03	5.6734051674173905e-02	-4.7645938765122520e-02	-1.0107682618488843e-01	6.3413222972061339e-02	-1.6449004915694979e-01	1.1395163606450556e-01	5.2189995219648212e-02	4.6925550314709779e-03	-8.5286165617849355e-22	4.6925550314709779e-03	-4.6925550314709779e-03
67                      	7.3375586851959955e-03	5.6960301111390589e-02	-4.9622742426194598e-02	-1.0321016241297817e-01	6.3374934206941569e-02	-1.6658509661991977e-01	1.1498001541343067e-01	5.3291521768792594e-02	3.7886740923560969e-03	-5.9755452784442444e-22	3.7886740923560969e-03	-3.7886740923560969e-03
68                      	5.4291934233078156e-03	5.6297317246637404e-02	-5.0868123823329593e-02	-1.0377412964370238e-01	6.2335554065483557e-02	-1.6610968370918594e-01	1.1422261888733475e-01	5.3582720534983495e-02	2.8033090224922697e-03	-3.8281203449310986e-22	2.8033090224922697e-03	-2.8033090224922697e-03
69                      	3.3930832843110455e-03	5.4820302895874647e-02	-5.1427219611563602e-02	-1.0288525913694951e-01	6.0382375040150878e-02	-1.6326763417710038e-01	1.1182500460862564e-01	5.3123761253719121e-02	1.7519841794808690e-03	-2.3754534455209907e-22	1.7519841794808690e-03	-1.7519841794808690e-03
70                      	1.3564441780111816e-03	5.2552725232320616e-02	-5.1196281054309435e-02	-1.0046580988515430e-01	5.7568684612656205e-02	-1.5803449449781051e-01	1.0780158955523335e-01	5.1874503143315029e-02	7.0038620956133074e-04	-1.5870520883782865e-22	7.0038620956133074e-04	-7.0038620956133074e-04
71                      	-4.8206104881501691e-04	4.9763089007396337e-02	-5.0245150056211357e-02	-9.6843421371721305e-02	5.4221774974630890e-02	-1.5106519634635218e-01	1.0264348566049154e-01	5.0004119531803851e-02	-2.4890733893062844e-04	-1.1435989479851476e-22	-2.4890733893062844e-04	2.4890733893062844e-04
72                      	-1.9541809277663384e-03	4.6827165522483720e-02	-4.8781346450250063e-02	-9.2582926150811859e-02	5.0785119516555371e-02	-1.4336804566736724e-01	9.7076582591961308e-02	4.7804255986366888e-02	-1.0090215247943854e-03	-8.8343953822786230e-23	-1.0090215247943854e-03	1.0090215247943854e-03
73                      	-3.1415301842670452e-03	4.3735935992269555e-02	-4.6877466176536597e-02	-8.7745889441945280e-02	4.7228255388867192e-02	-1.3497414483081246e-01	9.1101200109839825e-02	4.5306701084403080e-02	-1.6220972846869074e-03	-6.2060376406307567e-23	-1.6220972846869074e-03	1.6220972846869074e-03
74                      	-4.0073107885295221e-03	4.0671378680607884e-02	-4.4678689469137396e-02	-8.2649116626019273e-02	4.3748817832751377e-02	-1.2639793445877068e-01	8.5073376145761007e-02	4.2675034074872643e-02	-2.0691343287178596e-03	-4.6715283322309463e-23	-2.0691343287178596e-03	2.0691343287178596e-03
75                      	-4.2573999806443429e-03	3.8341926113908673e-02	-4.2599326094553025e-02	-7.8379820176548487e-02	4.1151768296286993e-02	-1.1953158847283549e-01	8.0341678384561230e-02	4.0470626104230849e-02	-2.1982653494830237e-03	-6.8787741585874229e-23	-2.1982653494830237e-03	2.1982653494830237e-03
76                      	-3.9810682294534839e-03	3.6801253881066844e-02	-4.0782322110520325e-02	-7.5128399536157187e-02	3.9482566638705863e-02	-1.1461096617486304e-01	7.7046766406784456e-02	3.8791787995793581e-02	-2.0555842491949386e-03	-1.0528320439164191e-22	-2.0555842491949386e-03	2.0555842491949386e-03
77                      	-3.1867917001106427e-03	3.6570854963721477e-02	-3.9757646663832122e-02	-7.3913042715289257e-02	3.9314866972640986e-02	-1.1322790968793026e-01	7.6271388330285614e-02	3.8164250813776800e-02	-1.6454676098610506e-03	-1.5304017800391358e-22	-1.6454676098610506e-03	1.6454676098610506e-03
78                      	-2.2506341997865376e-03	3.6899701950113648e-02	-3.9150336149900176e-02	-7.3643391324696883e-02	3.9774645750491083e-02	-1.1341803707518797e-01	7.6596341412839525e-02	3.8025019050006915e-02	-1.1620921685172308e-03	-2.5696750820774679e-22	-1.1620921685172308e-03	1.1620921685172308e-03
79                      	-1.3093945355208479e-03	3.7429426288472345e-02	-3.8738820823993200e-02	-7.3757859545615312e-02	4.0452844039397653e-02	-1.1421070358501297e-01	7.7331773812205309e-02	3.8084123556232773e-02	-6.7609260330815017e-04	-3.2610681912041429e-22	-6.7609260330815017e-04	6.7609260330815017e-04
80                      	-4.3436860002341921e-04	3.7906056434498285e-02	-3.8340425034521702e-02	-7.3833618131392706e-02	4.1060765185492690e-02	-1.1489438331688540e-01	7.7977574251189050e-02	3.8123240734509990e-02	-2.2428182615588234e-04	-3.7962442933342354e-22	-2.2428182615588234e-04	2.2428182615588234e-04
81                      	4.4814024535204801e-04	3.8135747515290544e-02	-3.7687607269938500e-02	-7.3423881532532043e-02	4.1386293721585116e-02	-1.1481017525411716e-01	7.8098234487851137e-02	3.7911677392614522e-02	2.3139267570465274e-04	-4.5672492103791766e-22	2.3139267570465274e-04	-2.3139267570465274e-04
82                      	1.4800992476567741e-03	3.8265781482559630e-02	-3.6785682234902847e-02	-7.2676417397289597e-02	4.1606468467601611e-02	-1.1428288586489121e-01	7.7944677166246409e-02	3.7525731858731239e-02	7.6423425205807323e-04	-6.2353642353746261e-22	7.6423425205807323e-04	-7.6423425205807323e-04
83                      	2.5261551243599863e-03	3.8387225252620394e-02	-3.5861070128260404e-02	-7.1898665780219959e-02	4.1820407110530367e-02	-1.1371907289075033e-01	7.7769740000640339e-02	3.7124147690440402e-02	1.3043546066956809e-03	-7.3407957499331664e-22	1.3043546066956809e-03	-1.3043546066956809e-03
84                      	3.3659936194779822e-03	3.8281369682762155e-02	-3.4915376063284168e-02	-7.0880393032563896e-02	4.1761206210119431e-02	-1.1264159924268333e-01	7.7201402726401372e-02	3.6598372873023158e-02	1.7379967054820993e-03	-8.1270017540843547e-22	1.7379967054820993e-03	-1.7379967054820993e-03
85                      	3.9675338473838303e-03	3.8022128814830462e-02	-3.4054594967446630e-02	-6.9795814801825382e-02	4.1511105856399215e-02	-1.1130692065822459e-01	7.6409013257311906e-02	3.6038361891138550e-02	2.0485959081262910e-03	-8.3525971991126089e-22	2.0485959081262910e-03	-2.0485959081262910e-03
86                      	4.3612759114502325e-03	3.7716815459358205e-02	-3.3355539547907979e-02	-6.8823229848808537e-02	4.1193037935807829e-02	-1.1001626778461636e-01	7.5604652860212090e-02	3.5536177503633089e-02	2.2519006340167842e-03	-8.1539530422401541e-22	2.2519006340167842e-03	-2.2519006340167842e-03
87                      	4.5536177599592277e-03	3.7445151901634131e-02	-3.2891534141674908e-02	-6.8110841548267603e-02	4.0896491566380429e-02	-1.0900733311464803e-01	7.4951912340514223e-02	3.5168343021654523e-02	2.3512143989331950e-03	-8.5660380407787855e-22	2.3512143989331950e-03	-2.3512143989331950e-03
88                      	4.5726084240569646e-03	3.7231197925969670e-02	-3.2658589501912708e-02	-6.7678085294088641e-02	4.0648843775543043e-02	-1.0832692906963169e-01	7.4487886422587371e-02	3.4944893713941189e-02	2.3610200359509836e-03	-8.7714112725003622e-22	2.3610200359509836e-03	-2.3610200359509836e-03
89                      	4.4625657020595675e-03	3.7102148465866111e-02	-3.2639582763806546e-02	-6.7534714418607006e-02	4.0484808648518875e-02	-1.0801952306712588e-01	7.4252165857822378e-02	3.4870865614836329e-02	2.3042005912595159e-03	-9.1534488252673032e-22	2.3042005912595159e-03	-2.3042005912595159e-03
90                      	4.2483384732590135e-03	3.7051288643970066e-02	-3.2802950170711054e-02	-6.7643661637001459e-02	4.0399350570237150e-02	-1.0804301220723861e-01	7.4221181388737886e-02	3.4927119407340557e-02	2.1935865319441992e-03	-9.3154072392303485e-22	2.1935865319441992e-03	-2.1935865319441992e-03
91                      	3.9690248149666062e-03	3.7072836892602004e-02	-3.3103812077635394e-02	-6.7955868939533814e-02	4.0387327822639749e-02	-1.0834319676217356e-01	7.4365262292406656e-02	3.5088324485118699e-02	2.0493657541330859e-03	-9.4168206055187135e-22	2.0493657541330859e-03	-2.0493657541330859e-03
92                      	3.6440168660776939e-03	3.7202726497487223e-02	-3.3558709631409528e-02	-6.8522150175450686e-02	4.0486285034511460e-02	-1.0900843520996215e-01	7.4747360122236803e-02	3.5380718064448376e-02	1.8815511922884822e-03	-9.3699237114316462e-22	1.8815511922884822e-03	-1.8815511922884822e-03
93                      	3.2534594511815099e-03	3.7431386523256775e-02	-3.4177927072075273e-02	-6.9343196076492378e-02	4.0685881840039136e-02	-1.1002907791653151e-01	7.5357479878285324e-02	3.5804656797666021e-02	1.6798908277342430e-03	-9.4369448793146598e-22	1.6798908277342430e-03	-1.6798908277342430e-03
94                      	2.8048570484340779e-03	3.7639977629069211e-02	-3.4835120580635141e-02	-7.0181582443574489e-02	4.0853229376747999e-02	-1.1103481182032249e-01	7.5944020598535236e-02	3.6237549104852176e-02	1.4482595217404702e-03	-8.7203671878168089e-22	1.4482595217404702e-03	-1.4482595217404702e-03