# Force and moment coefficients
# dragDir               : (1.0000000000000000e+00 0.0000000000000000e+00 0.0000000000000000e+00)
# sideDir               : (0.0000000000000000e+00 1.0000000000000000e+00 0.0000000000000000e+00)
# liftDir               : (0.0000000000000000e+00 0.0000000000000000e+00 1.0000000000000000e+00)
# rollAxis              : (1.0000000000000000e+00 0.0000000000000000e+00 0.0000000000000000e+00)
# pitchAxis             : (0.0000000000000000e+00 1.0000000000000000e+00 0.0000000000000000e+00)
# yawAxis               : (0.0000000000000000e+00 0.0000000000000000e+00 1.0000000000000000e+00)
# magUInf               : 1.6000000000000000e+01
# lRef                  : 1.5300000000000000e+00
# Aref                  : 1.0000000000000000e+00
# CofR                  : (0.0000000000000000e+00 7.6500000000000001e-01 0.0000000000000000e+00)
#
# Time                  	Cd                      	Cd(f)                   	Cd(r)                   	Cl                      	Cl(f)                   	Cl(r)                   	CmPitch                 	CmRoll                  	CmYaw                   	Cs                      	Cs(f)                   	Cs(r)                   
1                       	5.1677856645655718e-01	2.7417036372819537e-01	2.4260820272836181e-01	-3.0563358436547696e-02	3.6840237220702227e-01	-3.9896573064356999e-01	3.8368405142529616e-01	1.5781080499916788e-02	2.6683337745142510e-01	-1.3641530852946604e-20	2.6683337745142510e-01	-2.6683337745142510e-01
2                       	8.5370693481139653e-02	4.4887139297972903e-02	4.0483554183166751e-02	-4.2642311554768539e-03	5.9912983055125692e-02	-6.4177214210602546e-02	6.2045098632864122e-02	2.2017925574030787e-03	4.4080292712483829e-02	-1.0274208612799954e-20	4.4080292712483829e-02	-4.4080292712483829e-02
3                       	1.8680496899805429e-01	1.4520822340853770e-01	4.1596745589516586e-02	-1.0033263358424191e-01	2.0709430699204265e-01	-3.0742694057628456e-01	2.5726062378416359e-01	5.1805738909510561e-02	9.6454853273505267e-02	1.3618260290656601e-21	9.6454853273505267e-02	-9.6454853273505267e-02
4                       	1.8224590540936775e-01	1.3443546415496249e-01	4.7810441254405235e-02	-8.3883724707501606e-02	1.8612547595651513e-01	-2.7000920066401674e-01	2.2806733831026596e-01	4.3312511450278632e-02	9.4100826976078786e-02	8.3641158962741141e-21	9.4100826976078786e-02	-9.4100826976078786e-02
5                       	9.9817215504318421e-02	8.1700428401750416e-02	1.8116787102568012e-02	-6.1571500751740019e-02	1.1162808731904594e-01	-1.7319958807078595e-01	1.4241383769491597e-01	3.1791820649591199e-02	5.1539608005497756e-02	4.4826021981968258e-21	5.1539608005497756e-02	-5.1539608005497756e-02
6                       	1.5264123822372597e-01	9.7017210062779469e-02	5.5624028160946505e-02	-4.0083271082154738e-02	1.3059998679745058e-01	-1.7068325787960534e-01	1.5064162233852796e-01	2.0696590950916475e-02	7.8814756991335569e-02	1.5239053028765430e-21	7.8814756991335569e-02	-7.8814756991335569e-02
7                       	1.6825444981058252e-01	1.0181009403138377e-01	6.6444355779198730e-02	-3.4246569320153845e-02	1.3548804505200632e-01	-1.6973461437216014e-01	1.5261132971208324e-01	1.7682869126092519e-02	8.6876480621150401e-02	3.0732538906055164e-22	8.6876480621150401e-02	-8.6876480621150401e-02
8                       	2.3589706608782471e-01	1.3282774682987422e-01	1.0306931925795049e-01	-2.8816705180407159e-02	1.7634812630983129e-01	-2.0516483149023845e-01	1.9075647890003489e-01	1.4879213785961869e-02	1.2180306026756964e-01	-8.1980144848642018e-22	1.2180306026756964e-01	-1.2180306026756964e-01
9                       	1.9993214144916660e-01	1.1000485664713844e-01	8.9927284802028162e-02	-1.9442205647480223e-02	1.4616351951295431e-01	-1.6560572516043454e-01	1.5588462233669442e-01	1.0038785922555138e-02	1.0323293578094223e-01	-1.4307157584405604e-21	1.0323293578094223e-01	-1.0323293578094223e-01
10                      	1.9140653672658017e-01	9.9737504275987390e-02	9.1669032450592769e-02	-7.8131404385150347e-03	1.3255625569117205e-01	-1.4036939612968707e-01	1.3646282591042957e-01	4.0342359126973064e-03	9.8830826152940143e-02	-3.1984362575486120e-21	9.8830826152940143e-02	-9.8830826152940143e-02
11                      	1.4587493254816228e-01	7.3537091614962621e-02	7.2337840933199643e-02	-1.1612997108211244e-03	9.7687384092894722e-02	-9.8848683803715837e-02	9.8268033948305286e-02	5.9962534088149394e-04	7.5321043603299470e-02	-4.4801959167427076e-21	7.5321043603299470e-02	-7.5321043603299470e-02
12                      	1.4221514448811176e-01	7.0738141946411134e-02	7.1477002541700613e-02	7.1547893088158088e-04	9.4149146055491323e-02	-9.3433667124609737e-02	9.3791406590050530e-02	-3.6943029764473727e-04	7.3431349114776640e-02	-4.3643887574374771e-21	7.3431349114776640e-02	-7.3431349114776640e-02
13                      	1.1512704538365995e-01	5.9978335876210119e-02	5.5148709507449829e-02	-4.6767900912678779e-03	7.9953750063622306e-02	-8.4630540154890188e-02	8.2292145109256254e-02	2.4148131843801440e-03	5.9444683564112012e-02	-2.6651305758300288e-21	5.9444683564112012e-02	-5.9444683564112012e-02
14                      	7.3207938600019951e-02	3.9949630174557119e-02	3.3258308425462839e-02	-6.4795710608318022e-03	5.3355732924587201e-02	-5.9835303985419003e-02	5.6595518455003102e-02	3.3456608745471390e-03	3.7800177447069129e-02	-1.6478039224936679e-21	3.7800177447069129e-02	-3.7800177447069129e-02
15                      	7.5460237875853597e-02	4.1182837560502700e-02	3.4277400315350905e-02	-6.6869107500520698e-03	5.4897801070859030e-02	-6.1584711820911096e-02	5.8241256445885063e-02	3.4527186225759010e-03	3.8963129360734872e-02	-9.0481258092587231e-22	3.8963129360734872e-02	-3.8963129360734872e-02
16                      	8.1041495606230682e-02	4.2018180236765672e-02	3.9023315369465010e-02	-2.9000906626392526e-03	5.5962258898016509e-02	-5.8862349560655766e-02	5.7412304229336138e-02	1.4974324336503328e-03	4.1844955247661596e-02	-1.0577999505490413e-21	4.1844955247661596e-02	-4.1844955247661596e-02
17                      	8.5003236155632989e-02	4.0466270938006567e-02	4.4536965217626422e-02	3.9418748403913812e-03	5.3792792413876953e-02	-4.9850917573485566e-02	5.1821854993681256e-02	-2.0353471398099274e-03	4.3890559845065437e-02	-1.6649955964080273e-21	4.3890559845065437e-02	-4.3890559845065437e-02
18                      	8.8210047495652325e-02	3.9296440967179873e-02	4.8913606528472452e-02	9.3128248789731971e-03	5.2182822163705227e-02	-4.2869997284732030e-02	4.7526409724218628e-02	-4.8085827806462894e-03	4.5546364393179974e-02	-2.2260816086417264e-21	4.5546364393179974e-02	-4.5546364393179974e-02
19                      	8.7925135213670291e-02	3.7447642519437656e-02	5.0477492694232642e-02	1.2617513143947027e-02	4.9720888267366606e-02	-3.7103375123419574e-02	4.3412131695393090e-02	-6.5149250873974881e-03	4.5399252822744769e-02	-2.7261916020261384e-21	4.5399252822744769e-02	-4.5399252822744769e-02
20                      	8.4430640672735036e-02	3.5478556663087045e-02	4.8952084009647984e-02	1.3047149898884957e-02	4.7088974245933869e-02	-3.4041824347048916e-02	4.0565399296491396e-02	-6.7367636732804720e-03	4.3594905968274957e-02	-3.2651112059458986e-21	4.3594905968274957e-02	-4.3594905968274957e-02
21                      	8.0813080746234889e-02	3.4068491389732947e-02	4.6744589356501942e-02	1.2274955626048458e-02	4.5221353558846239e-02	-3.2946397932797786e-02	3.9083875745822012e-02	-6.3380489833845012e-03	4.1727015548709487e-02	-3.6433835694417544e-21	4.1727015548709487e-02	-4.1727015548709487e-02
22                      	7.5051150929996077e-02	3.2091354938135919e-02	4.2959795991860152e-02	1.0524503045694966e-02	4.2570753400279791e-02	-3.2046250354584825e-02	3.7308501877432308e-02	-5.4342205268621173e-03	3.8751901460586220e-02	-3.6587697838112547e-21	3.8751901460586220e-02	-3.8751901460586220e-02
23                      	7.4539043648480061e-02	3.2665819541427964e-02	4.1873224107052097e-02	8.9160310034208483e-03	4.3460411221532283e-02	-3.4544380218111438e-02	3.9002395719821857e-02	-4.6037022828120701e-03	3.8487480053790324e-02	-3.1152720738909069e-21	3.8487480053790324e-02	-3.8487480053790324e-02
24                      	6.9695532661866150e-02	3.2245185427387822e-02	3.7450347234478334e-02	5.0404414967395467e-03	4.2949300891688448e-02	-3.7908859394948903e-02	4.0429080143318676e-02	-2.6025809035452540e-03	3.5986582224100817e-02	-2.1922482945348394e-21	3.5986582224100817e-02	-3.5986582224100817e-02
25                      	6.6089715799264856e-02	3.2484187671047389e-02	3.3605528128217474e-02	1.0858549996647002e-03	4.3400998839102672e-02	-4.2315143839437970e-02	4.2858071339270325e-02	-5.6067022858504172e-04	3.4124755216613893e-02	-1.3844752384039127e-21	3.4124755216613893e-02	-3.4124755216613893e-02
26                      	6.1487039679236681e-02	3.1713072794241522e-02	2.9773966884995163e-02	-1.8777417981942592e-03	4.2574011759822054e-02	-4.4451753558016303e-02	4.3512882658919179e-02	9.6955295462317851e-04	3.1748210030455526e-02	-9.3195158504114331e-22	3.1748210030455526e-02	-3.1748210030455526e-02
27                      	5.7938384405808188e-02	3.0798185464731353e-02	2.7140198941076835e-02	-3.5422274564502585e-03	4.1568331964163312e-02	-4.5110559420613573e-02	4.3339445692388442e-02	1.8289932618272583e-03	2.9915897830449973e-02	-5.8984719030781460e-22	2.9915897830449973e-02	-2.9915897830449973e-02
28                      	4.9700457987199159e-02	2.7403014977985734e-02	2.2297443009213429e-02	-4.9440032355833104e-03	3.7123926811604459e-02	-4.2067930047187771e-02	3.9595928429396118e-02	2.5527859843861543e-03	2.5662327980318533e-02	-2.1980428731143858e-22	2.5662327980318533e-02	-2.5662327980318533e-02
29                      	4.1993454240552820e-02	2.3768485363246803e-02	1.8224968877306014e-02	-5.3680887490439302e-03	3.2271922945280654e-02	-3.7640011694324585e-02	3.4955967319802619e-02	2.7717582429703956e-03	2.1682894673226601e-02	2.3972587202129142e-22	2.1682894673226601e-02	-2.1682894673226601e-02
30                      	3.4652735874061882e-02	1.9998799012804536e-02	1.4653936861257344e-02	-5.1757209442197527e-03	2.7203823606011795e-02	-3.2379544550231544e-02	2.9791684078121671e-02	2.6724310757735951e-03	1.7892589111443712e-02	5.3793093511174589e-22	1.7892589111443712e-02	-1.7892589111443712e-02
31                      	2.7470981137087198e-02	1.5960812111239682e-02	1.1510169025847517e-02	-4.3097999497784881e-03	2.1728983382390321e-02	-2.6038783332168809e-02	2.3883883357279565e-02	2.2253215426960827e-03	1.4184362809345680e-02	6.0963904789798975e-22	1.4184362809345680e-02	-1.4184362809345680e-02
32                      	2.1628831731825889e-02	1.2467288885678102e-02	9.1615428461477872e-03	-3.2011338230894830e-03	1.6971294084402913e-02	-2.0172427907492397e-02	1.8571860995947657e-02	1.6528730197651578e-03	1.1167828149112708e-02	5.0384036647578813e-22	1.1167828149112708e-02	-1.1167828149112708e-02
33                      	1.8319774553860618e-02	1.0485669283310404e-02	7.8341052705502151e-03	-2.5676537591918288e-03	1.4248822321951056e-02	-1.6816476081142884e-02	1.5532649201546971e-02	1.3257820063800948e-03	9.4592299983986272e-03	4.3235594215110024e-22	9.4592299983986272e-03	-9.4592299983986272e-03
34                      	1.6664335862228919e-02	9.5865764371922402e-03	7.0777594250366789e-03	-2.4294240687329164e-03	1.2997126422682527e-02	-1.5426550491415444e-02	1.4211838457048985e-02	1.2544085060777802e-03	8.6044610007587272e-03	3.8443979391446333e-22	8.6044610007587272e-03	-8.6044610007587272e-03
35                      	1.6610369037954178e-02	9.5541178194355446e-03	7.0562512185186332e-03	-2.4188201894954891e-03	1.2926812133634769e-02	-1.5345632323130258e-02	1.4136222228382515e-02	1.2489333004584555e-03	8.5765957777671851e-03	3.0166429191966187e-22	8.5765957777671851e-03	-8.5765957777671851e-03
36                      	1.7843539506048316e-02	1.0168128216414083e-02	7.6754112896342342e-03	-2.4138334797298533e-03	1.3733502372446584e-02	-1.6147335852176436e-02	1.4940419112311509e-02	1.2463584633899245e-03	9.2133308560641593e-03	1.5742043707436756e-22	9.2133308560641593e-03	-9.2133308560641593e-03
37                      	1.9336506485070480e-02	1.0952274428406100e-02	8.3842320566643782e-03	-2.4867752080790085e-03	1.4767846720603914e-02	-1.7254621928682923e-02	1.6011234324643419e-02	1.2840211858708610e-03	9.9842092308533824e-03	2.0122679054227682e-23	9.9842092308533824e-03	-9.9842092308533824e-03
38                      	1.9415384211727824e-02	1.1018371934682214e-02	8.3970122770456092e-03	-2.5384052380911415e-03	1.4843766281690002e-02	-1.7382171519781144e-02	1.6112968900735571e-02	1.3106798288183017e-03	1.0024936945924830e-02	-6.7256847308747778e-23	1.0024936945924830e-02	-1.0024936945924830e-02
39                      	1.8461125308644868e-02	1.0537303002848357e-02	7.9238223057965136e-03	-2.5307756117021038e-03	1.4186268851254765e-02	-1.6717044462956868e-02	1.5451656657105817e-02	1.3067403485259219e-03	9.5322150286466945e-03	-8.4982649976940553e-23	9.5322150286466945e-03	-9.5322150286466945e-03
40                      	1.7344973207599992e-02	9.9478987437502595e-03	7.3970744638497329e-03	-2.4701019925619022e-03	1.3381997125852557e-02	-1.5852099118414460e-02	1.4617048122133510e-02	1.2754121399502628e-03	8.9559011986954182e-03	-7.3059681949072038e-23	8.9559011986954182e-03	-8.9559011986954182e-03
41                      	1.6603218485193118e-02	9.4738024848361330e-03	7.1294160003569839e-03	-2.2701970387677831e-03	1.2731655530901633e-02	-1.5001852569669417e-02	1.3866754050285524e-02	1.1721932422395741e-03	8.5729036622892701e-03	-7.8375440566703554e-23	8.5729036622892701e-03	-8.5729036622892701e-03
42                      	1.6094577113796377e-02	9.0704415847324277e-03	7.0241355290639488e-03	-1.9815495349194789e-03	1.2179227391835573e-02	-1.4160776926755051e-02	1.3170002159295313e-02	1.0231530278342403e-03	8.3102718430713290e-03	-1.0020880458722553e-22	8.3102718430713290e-03	-8.3102718430713290e-03
43                      	1.5563469659412195e-02	8.6655781513422549e-03	6.8978915080699409e-03	-1.7117471925358480e-03	1.1630893952365334e-02	-1.3342641144901184e-02	1.2486767548633260e-02	8.8384332163615644e-04	8.0360398895004161e-03	-1.2307023588788945e-22	8.0360398895004161e-03	-8.0360398895004161e-03
44                      	1.4902404794750383e-02	8.2046482709262954e-03	6.6977565238240866e-03	-1.4592052994091011e-03	1.1015015512337785e-02	-1.2474220811746886e-02	1.1744618162042336e-02	7.5344587355110455e-04	7.6947057436946393e-03	-1.3919946766940963e-22	7.6947057436946393e-03	-7.6947057436946393e-03
45                      	1.4004102306420886e-02	7.6646425204348482e-03	6.3394597859860388e-03	-1.2832465719662513e-03	1.0297519186672804e-02	-1.1580765758639054e-02	1.0939142472655929e-02	6.6259136722440456e-04	7.2308763542957514e-03	-1.6445252134755002e-22	7.2308763542957514e-03	-7.2308763542957514e-03
46                      	1.2702010618462307e-02	6.9066713660456015e-03	5.7953392524167056e-03	-1.0761633758558280e-03	9.2884827100356351e-03	-1.0364646085891464e-02	9.8265643979635504e-03	5.5566605681444737e-04	6.5585545023432853e-03	-1.8582701565466339e-22	6.5585545023432853e-03	-6.5585545023432853e-03
47                      	1.1202510437113495e-02	6.0199490326192590e-03	5.1825614044942363e-03	-8.1088801964005483e-04	8.1034034866911513e-03	-8.9142915063312074e-03	8.5088474965111793e-03	4.1869381406251172e-04	5.7843027747187361e-03	-2.0220755617092731e-22	5.7843027747187361e-03	-5.7843027747187361e-03
48                      	9.7731105267374486e-03	5.1534786751446212e-03	4.6196318515928274e-03	-5.1695293673053471e-04	6.9400963294456606e-03	-7.4570492661761951e-03	7.1985727978109279e-03	2.6692341177589709e-04	5.0462466118448264e-03	-2.0286625220287662e-22	5.0462466118448264e-03	-5.0462466118448264e-03
49                      	8.5643204577999944e-03	4.3943347697730957e-03	4.1699856880268987e-03	-2.1724942726055808e-04	5.9163330582062690e-03	-6.1335824854668285e-03	6.0249577718365487e-03	1.1217454087309859e-04	4.4221001056614353e-03	-1.5826460677554180e-22	4.4221001056614353e-03	-4.4221001056614353e-03
50                      	7.6981236636709692e-03	3.8203899051304914e-03	3.8777337585404774e-03	5.5529174504606033e-05	5.1378632344286686e-03	-5.0823340599240631e-03	5.1100986471763659e-03	-2.8671926704992864e-05	3.9748481662091962e-03	-1.2398115438591014e-22	3.9748481662091962e-03	-3.9748481662091962e-03
51                      	7.2003488719899547e-03	3.4606820233700352e-03	3.7396668486199196e-03	2.7015619153944448e-04	4.6443915974613307e-03	-4.3742354059218861e-03	4.5093135016916084e-03	-1.3949241262494196e-04	3.7178271953412210e-03	-1.2890764010106086e-22	3.7178271953412210e-03	-3.7178271953412210e-03
52                      	6.7184741320114212e-03	3.1310962733196814e-03	3.5873778586917402e-03	4.4184229469572758e-04	4.1912183321307622e-03	-3.7493760374350356e-03	3.9702971847828984e-03	-2.2814079268602949e-04	3.4690160550908638e-03	-1.4417407094512230e-22	3.4690160550908638e-03	-3.4690160550908638e-03
53                      	6.1485871464829834e-03	2.7725572774374976e-03	3.3760298690454853e-03	5.8437535769634231e-04	3.7008580688300840e-03	-3.1164827111337416e-03	3.4086703899819126e-03	-3.0173629580399364e-04	3.1747606834781413e-03	-1.6230333181498467e-22	3.1747606834781413e-03	-3.1747606834781413e-03
54                      	5.3408933993390993e-03	2.2952377141599945e-03	3.0456556851791048e-03	7.2667056687293662e-04	3.0539425318913075e-03	-2.3272719650183709e-03	2.6906072484548394e-03	-3.7520898550955556e-04	2.7577161996587512e-03	-1.7367178991480016e-22	2.7577161996587512e-03	-2.7577161996587512e-03
55                      	4.3849264642379275e-03	1.7279241797214494e-03	2.6570022845164780e-03	8.9967689894708482e-04	2.2884302945603537e-03	-1.3887533956132691e-03	1.8385918450868114e-03	-4.6453905239751431e-04	2.2641123573516075e-03	-1.7153641410443386e-22	2.2641123573516075e-03	-2.2641123573516075e-03
56                      	3.4220336949093723e-03	1.1341144836208082e-03	2.2879192112885637e-03	1.1172919198301670e-03	1.4882809307868823e-03	-3.7098901095671525e-04	9.2963497087179868e-04	-5.7690236383387764e-04	1.7669324307048385e-03	-1.5812754955547519e-22	1.7669324307048385e-03	-1.7669324307048385e-03
57                      	2.8011082542234306e-03	7.0858655877757237e-04	2.0925216954458584e-03	1.3401397209509352e-03	9.1389027188957714e-04	4.2624944906135805e-04	2.4382041141410955e-04	-6.9196756833414302e-04	1.4463238698277823e-03	-1.5529214619548882e-22	1.4463238698277823e-03	-1.4463238698277823e-03
58                      	2.9030771092075631e-03	6.5591756235486981e-04	2.2471595468526936e-03	1.5408862254947279e-03	8.4021023685410326e-04	7.0067598864062455e-04	6.9767124106739328e-05	-7.9562099224891186e-04	1.4989744550810294e-03	-1.8535352248196724e-22	1.4989744550810294e-03	-1.4989744550810294e-03
59                      	4.1743941875200287e-03	1.2350134633194153e-03	2.9393807242006137e-03	1.6504315880685023e-03	1.6146158361513853e-03	3.5815751917116863e-05	7.8940004211713421e-04	-8.5218363044059920e-04	2.1554061491116504e-03	-2.3445787107273063e-22	2.1554061491116504e-03	-2.1554061491116504e-03
60                      	6.4909540906612842e-03	2.3895555641126869e-03	4.1013985265485973e-03	1.6576707167892028e-03	3.1610273904344411e-03	-1.5033566736452383e-03	2.3321920320398398e-03	-8.5592148121795518e-04	3.3515383866813170e-03	-3.1156448858540514e-22	3.3515383866813170e-03	-3.3515383866813170e-03
61                      	9.4987419771076671e-03	3.9328923805899392e-03	5.5658495965177288e-03	1.5812813546642510e-03	5.2284789512659904e-03	-3.6471975966017394e-03	4.4378382739338647e-03	-8.1647860796389476e-04	4.9045791907941548e-03	-4.0656657636768035e-22	4.9045791907941548e-03	-4.9045791907941548e-03
62                      	1.2678386035901081e-02	5.5843191228505491e-03	7.0940669130505323e-03	1.4619709613961870e-03	7.4407576289543904e-03	-5.9787866675582030e-03	6.7097721482562971e-03	-7.5487389509999150e-04	6.5463561884718038e-03	-5.0018849689744487e-22	6.5463561884718038e-03	-6.5463561884718038e-03
63                      	1.5256641376211334e-02	6.9461843258625377e-03	8.3104570503487966e-03	1.3210995370025176e-03	9.2662351336805174e-03	-7.9451355966780011e-03	8.6056853651792584e-03	-6.8213636224312988e-04	7.8776122138607529e-03	-5.7193916392736155e-22	7.8776122138607529e-03	-7.8776122138607529e-03
64                      	1.6856988730953350e-02	7.8118682458242694e-03	9.0451204851290795e-03	1.1942252697065543e-03	1.0428843344003496e-02	-9.2346180742969436e-03	9.8317307091502198e-03	-6.1662611965240463e-04	8.7039353578125134e-03	-6.1118627504501857e-22	8.7039353578125134e-03	-8.7039353578125134e-03
65                      	1.7529661429743836e-02	8.1953010887905950e-03	9.3343603409532429e-03	1.1030130732967429e-03	1.0948196767502952e-02	-9.8451836942062103e-03	1.0396690230854582e-02	-5.6952962608132452e-04	9.0512630911749273e-03	-6.2481103636544752e-22	9.0512630911749273e-03	-9.0512630911749273e-03
66                      	1.7436629455026748e-02	8.1866856673967810e-03	9.2499437876299648e-03	1.0296107113650448e-03	1.0944830504307525e-02	-9.9152197929424819e-03	1.0430025148625004e-02	-5.3162906011659143e-04	9.0032269735105426e-03	-6.0738560572855846e-22	9.0032269735105426e-03	-9.0032269735105426e-03
67                      	1.6540740767358685e-02	7.7817930206752640e-03	8.7589477466834195e-03	9.4623210809650698e-04	1.0411470450536239e-02	-9.4652383424397354e-03	9.9383543964879865e-03	-4.8857736300407864e-04	8.5406439256296499e-03	-5.7372156697111071e-22	8.5406439256296499e-03	-8.5406439256296499e-03
68                      	1.4948892712336681e-02	7.0401877398799384e-03	7.9087049724567409e-03	8.4103251002690604e-04	9.4268091142849491e-03	-8.5857766042580445e-03	9.0062928592714968e-03	-4.3425861628840174e-04	7.7187093089842928e-03	-5.2024069893651639e-22	7.7187093089842928e-03	-7.7187093089842928e-03
69                      	1.2940563140427221e-02	6.1069207752696931e-03	6.8336423651575284e-03	7.0372407122049974e-04	8.1834388538938041e-03	-7.4797147826733048e-03	7.8315768182835553e-03	-3.6336079494391811e-04	6.6817286803513088e-03	-4.4524769969915104e-22	6.6817286803513088e-03	-6.6817286803513088e-03
70                      	1.0930718868666124e-02	5.1917519814834862e-03	5.7389668871826371e-03	5.2989797830360922e-04	6.9621462832752572e-03	-6.4322483049716484e-03	6.6971972941234532e-03	-2.7360745284957580e-04	5.6439659517949214e-03	-3.6078712983682698e-22	5.6439659517949214e-03	-5.6439659517949214e-03
71                      	9.3201436615334733e-03	4.4945246625409359e-03	4.8256189989925374e-03	3.2061666757655070e-04	6.0311688329992997e-03	-5.7105521654227500e-03	5.8708604992110244e-03	-1.6554716822580047e-04	4.8123617598767616e-03	-2.8587128172708195e-22	4.8123617598767616e-03	-4.8123617598767616e-03
72                      	8.2949021415963543e-03	4.0998743356636157e-03	4.1950278059327394e-03	9.2142284501113721e-05	5.5047729220231269e-03	-5.4126306375220125e-03	5.4587017797725701e-03	-4.7576735134561975e-05	4.2829886874909302e-03	-2.2522977640747906e-22	4.2829886874909302e-03	-4.2829886874909302e-03
73                      	7.6984413318108708e-03	3.9120298358266605e-03	3.7864114959842107e-03	-1.2164307592338395e-04	5.2552861536330434e-03	-5.3769292295564276e-03	5.3161076915947359e-03	6.2809169921224512e-05	3.9750121909350265e-03	-1.8055016543586584e-22	3.9750121909350265e-03	-3.9750121909350265e-03
74                      	7.3646607284106940e-03	3.8309268812676007e-03	3.5337338471430938e-03	-2.8778819127246594e-04	5.1484002206626280e-03	-5.4361884119350935e-03	5.2922943162988607e-03	1.4859651706225336e-04	3.8026679578068287e-03	-1.5004200805590202e-22	3.8026679578068287e-03	-3.8026679578068287e-03
75                      	7.2054213378503909e-03	3.8124828550290114e-03	3.3929384828213795e-03	-4.0626765156814994e-04	5.1252697569094709e-03	-5.5315374084776202e-03	5.3284035826935451e-03	2.0977218610381587e-04	3.7204463117005322e-03	-1.3386548713774413e-22	3.7204463117005322e-03	-3.7204463117005322e-03
76                      	7.1146831489717110e-03	3.8047923111308710e-03	3.3098908378408399e-03	-4.7924003426186480e-04	5.1159881639226620e-03	-5.5952281981845268e-03	5.3556081810535944e-03	2.4745073664501530e-04	3.6735945671161133e-03	-1.3507764450069524e-22	3.6735945671161133e-03	-3.6735945671161133e-03
77                      	7.0926531367075498e-03	3.8073143881954034e-03	3.2853387485121469e-03	-5.0545742323758426e-04	5.1194640790613874e-03	-5.6249215022989713e-03	5.3721927906801789e-03	2.6098781984162841e-04	3.6622195934633752e-03	-1.2921533025662696e-22	3.6622195934633752e-03	-3.6622195934633752e-03
78                      	7.1597933410892300e-03	3.8382139545450433e-03	3.3215793865441867e-03	-5.0028537281095610e-04	5.1601061725449126e-03	-5.6603915453558697e-03	5.4102488589503912e-03	2.5831728400042820e-04	3.6968867578173162e-03	-1.2932401043541598e-22	3.6968867578173162e-03	-3.6968867578173162e-03
79                      	7.3197616956691691e-03	3.9075666032096007e-03	3.4121950924595685e-03	-4.7969519711870177e-04	5.2518680826761947e-03	-5.7315632797948959e-03	5.4917156812355448e-03	2.4768575537501589e-04	3.7794847971102273e-03	-1.3204436351649743e-22	3.7794847971102273e-03	-3.7794847971102273e-03
80                      	7.5292737700319396e-03	4.0022963339075117e-03	3.5269774361244284e-03	-4.6027716051146624e-04	5.3775304358703686e-03	-5.8378075963818358e-03	5.6076690161261022e-03	2.3765944889154160e-04	3.8876642341994986e-03	-1.3658826167494284e-22	3.8876642341994986e-03	-3.8876642341994986e-03
81                      	7.8465366791415688e-03	4.1562383468416756e-03	3.6902983322998923e-03	-4.5119507737273966e-04	5.5824375434150985e-03	-6.0336326207878375e-03	5.8080350821014676e-03	2.3297000727089164e-04	4.0514797232168885e-03	-1.4827386227732443e-22	4.0514797232168885e-03	-4.0514797232168885e-03
82                      	8.3260139160224299e-03	4.3985700374110240e-03	3.9274438786114059e-03	-4.5621710314140208e-04	5.9055586968340878e-03	-6.3617757999754896e-03	6.1336672484047887e-03	2.3556307939980877e-04	4.2990529370311890e-03	-1.6296995169677375e-22	4.2990529370311890e-03	-4.2990529370311890e-03
83                      	8.8273797005897874e-03	4.6518605352131644e-03	4.1755191653766238e-03	-4.6126727585437153e-04	6.2428082043821335e-03	-6.7040754802365054e-03	6.4734418423093194e-03	2.3817068491827035e-04	4.5579280806966899e-03	-1.7902709223869523e-22	4.5579280806966899e-03	-4.5579280806966899e-03
84                      	9.2249463068686203e-03	4.8498808644121000e-03	4.3750654424565211e-03	-4.5978961746331333e-04	6.5055133579418906e-03	-6.9653029754052050e-03	6.7354081666735474e-03	2.3740771097778915e-04	4.7632075702132111e-03	-1.9633868682891029e-22	4.7632075702132111e-03	-4.7632075702132111e-03
85                      	9.4710261648449472e-03	4.9674172828263188e-03	4.5036088820186284e-03	-4.4913091976947174e-04	6.6600651061742384e-03	-7.1091960259437115e-03	6.8846305660589750e-03	2.3190420040384481e-04	4.8902684119134024e-03	-2.0831560176111607e-22	4.8902684119134024e-03	-4.8902684119134024e-03
86                      	9.6031690903539621e-03	5.0227920498789229e-03	4.5803770404750383e-03	-4.2841453442274955e-04	6.7311092338398874e-03	-7.1595237682626376e-03	6.9453165010512621e-03	2.2120750470194247e-04	4.9584990727971449e-03	-2.1806831550978090e-22	4.9584990727971449e-03	-4.9584990727971449e-03
87                      	9.6800512930072333e-03	5.0482930143185096e-03	4.6317582786887228e-03	-4.0335325665416056e-04	6.7622886784083789e-03	-7.1656419350625399e-03	6.9639653067354599e-03	2.0826736781489331e-04	4.9981964192651685e-03	-2.2475528796420329e-22	4.9981964192651685e-03	-4.9981964192651685e-03
88                      	9.7258871958547377e-03	5.0586592176646364e-03	4.6672279781901022e-03	-3.7904417493420047e-04	6.7735430002466889e-03	-7.1525871751808899e-03	6.9630650877137894e-03	1.9571561973726694e-04	5.0218633233498318e-03	-2.3358778102961838e-22	5.0218633233498318e-03	-5.0218633233498318e-03
89                      	9.7638153288299966e-03	5.0616594677406479e-03	4.7021558610893487e-03	-3.4812691023828447e-04	6.7754638511252300e-03	-7.1235907613635147e-03	6.9495273062443724e-03	1.7975180332565003e-04	5.0414471305723551e-03	-2.3958636839476933e-22	5.0414471305723551e-03	-5.0414471305723551e-03
90                      	9.8052907555711399e-03	5.0622017653309554e-03	4.7430889902401836e-03	-3.0901426954992479e-04	6.7744699392252817e-03	-7.0834842087752065e-03	6.9289770740002437e-03	1.5955638754538599e-04	5.0628625469942455e-03	-2.4322216816214240e-22	5.0628625469942455e-03	-5.0628625469942455e-03
91                      	9.8686488935326062e-03	5.0685106195270634e-03	4.8001382740055429e-03	-2.5987954977716951e-04	6.7814681593878394e-03	-7.0413477091650087e-03	6.9114079342764241e-03	1.3418617276076075e-04	5.0955768796671621e-03	-2.4605841928665836e-22	5.0955768796671621e-03	-5.0955768796671621e-03
92                      	9.9570191932432557e-03	5.0799787234567031e-03	4.8770404697865534e-03	-1.9651615703501866e-04	6.7953083919959929e-03	-6.9918245490310114e-03	6.8935664705135026e-03	1.0146912683507497e-04	5.1412059886680886e-03	-2.4856174007170000e-22	5.1412059886680886e-03	-5.1412059886680886e-03
93                      	1.0047008099733338e-02	5.0872278932851869e-03	4.9597802064481507e-03	-1.2341453219029438e-04	6.8034120768874695e-03	-6.9268266090777627e-03	6.8651193429826157e-03	6.3723843418517914e-05	5.1876708488819215e-03	-2.5562461136806025e-22	5.1876708488819215e-03	-5.1876708488819215e-03
94                      	1.0117221220274702e-02	5.0799708567096239e-03	5.0372503635650774e-03	-4.1368578804529859e-05	6.7918961609458985e-03	-6.8332647397504279e-03	6.8125804503481628e-03	2.1360246572273496e-05	5.2239246823640633e-03	-2.6729870574796275e-22	5.2239246823640633e-03	-5.2239246823640633e-03